 vasp.5.2.12 11Nov11 complex                                                    
  
 executed on           GRPM8000O3 date 2014.01.23  23:13:48
 running on   24 nodes
 distr:  one band on    6 nodes,    4 groups


--------------------------------------------------------------------------------------------------------


 INCAR:
 POTCAR:   PAW_PBE Ce 28Sep2000                   
 POTCAR:   PAW_PBE O 08Apr2002                    
 POTCAR:   PAW_PBE Ce 28Sep2000                   
   VRHFIN =Ce : [core=Xe4] s2d1f1                                               
   LEXCH  = PE                                                                  
   EATOM  =  1063.0861 eV,   78.1346 Ry                                         
                                                                                
   TITEL  = PAW_PBE Ce 28Sep2000                                                
   LULTRA =        F    use ultrasoft PP ?                                      
   IUNSCR =        1    unscreen: 0-lin 1-nonlin 2-no                           
   RPACOR =    1.800    partial core radius                                     
   POMASS =  140.115; ZVAL   =   12.000    mass and valenz                      
   RCORE  =    2.570    outmost cutoff radius                                   
   RWIGS  =    2.500; RWIGS  =    1.323    wigner-seitz radius (au A)           
   ENMAX  =  299.900; ENMIN  =  224.925 eV                                      
   RCLOC  =    1.810    cutoff for local pot                                    
   LCOR   =        T    correct aug charges                                     
   LPAW   =        T    paw PP                                                  
   EAUG   =  659.424                                                            
   DEXC   =     .000                                                            
   RMAX   =    2.662    core radius for proj-oper                               
   RAUG   =    1.300    factor for augmentation sphere                          
   RDEP   =    2.636    radius for radial grids                                 
   QCUT   =   -4.695; QGAM   =    9.390    optimization parameters              
                                                                                
   Description                                                                  
     l     E      TYP  RCUT    TYP  RCUT                                        
     0   .000     23  1.500                                                     
     0   .000     23  1.650                                                     
     0   .000     23  1.500                                                     
     0   .000     23  1.650                                                     
     1   .000     23  1.800                                                     
     1  4.000     23  1.800                                                     
     2   .000     23  2.300                                                     
     2   .000     23  2.300                                                     
     3   .000     23  2.570                                                     
     3 -1.000     23  2.570                                                     
  local pseudopotential read in
  partial core-charges read in
  atomic valenz-charges read in
  non local Contribution for L=           0  read in
    real space projection operators read in
  non local Contribution for L=           0  read in
    real space projection operators read in
  non local Contribution for L=           1  read in
    real space projection operators read in
  non local Contribution for L=           1  read in
    real space projection operators read in
  non local Contribution for L=           2  read in
    real space projection operators read in
  non local Contribution for L=           2  read in
    real space projection operators read in
  non local Contribution for L=           3  read in
    real space projection operators read in
  non local Contribution for L=           3  read in
    real space projection operators read in
    PAW grid and wavefunctions read in
 
   number of l-projection  operators is LMAX  =           8
   number of lm-projection operators is LMMAX =          32
 
 POTCAR:   PAW_PBE O 08Apr2002                    
   VRHFIN =O: s2p4                                                              
   LEXCH  = PE                                                                  
   EATOM  =   432.3788 eV,   31.7789 Ry                                         
                                                                                
   TITEL  = PAW_PBE O 08Apr2002                                                 
   LULTRA =        F    use ultrasoft PP ?                                      
   IUNSCR =        0    unscreen: 0-lin 1-nonlin 2-no                           
   RPACOR =     .000    partial core radius                                     
   POMASS =   16.000; ZVAL   =    6.000    mass and valenz                      
   RCORE  =    1.520    outmost cutoff radius                                   
   RWIGS  =    1.550; RWIGS  =     .820    wigner-seitz radius (au A)           
   ENMAX  =  400.000; ENMIN  =  300.000 eV                                      
   ICORE  =        2    local potential                                         
   LCOR   =        T    correct aug charges                                     
   LPAW   =        T    paw PP                                                  
   EAUG   =  605.392                                                            
   DEXC   =     .000                                                            
   RMAX   =    2.264    core radius for proj-oper                               
   RAUG   =    1.300    factor for augmentation sphere                          
   RDEP   =    1.550    radius for radial grids                                 
   QCUT   =   -5.520; QGAM   =   11.041    optimization parameters              
                                                                                
   Description                                                                  
     l     E      TYP  RCUT    TYP  RCUT                                        
     0   .000     23  1.200                                                     
     0  -.700     23  1.200                                                     
     1   .000     23  1.520                                                     
     1   .600     23  1.520                                                     
     2   .000      7  1.500                                                     
  local pseudopotential read in
  atomic valenz-charges read in
  non local Contribution for L=           0  read in
    real space projection operators read in
  non local Contribution for L=           0  read in
    real space projection operators read in
  non local Contribution for L=           1  read in
    real space projection operators read in
  non local Contribution for L=           1  read in
    real space projection operators read in
    PAW grid and wavefunctions read in
 
   number of l-projection  operators is LMAX  =           4
   number of lm-projection operators is LMMAX =           8
 

 ----------------------------------------------------------------------------- 
|                                                                             |
|  ADVICE TO THIS USER RUNNING 'VASP/VAMP'   (HEAR YOUR MASTER'S VOICE ...):  |
|                                                                             |
|      You have a (more or less) 'large supercell' and for larger cells       |
|      it might be more efficient to use real space projection opertators     |
|      So try LREAL= Auto  in the INCAR   file.                               |
|      Mind: At the moment your POTCAR file does not contain real space       |
|       projectors, and has to be modified,  BUT if you                       |
|      want to do an extremely  accurate calculation you might also keep the  |
|      reciprocal projection scheme          (i.e. LREAL=.FALSE.)             |
|                                                                             |
 ----------------------------------------------------------------------------- 

 PAW_PBE Ce 28Sep2000                   :
 energy of atom  1       EATOM=-1063.0861
 kinetic energy error for atom=    0.0216 (will be added to EATOM!!)
 PAW_PBE O 08Apr2002                    :
 energy of atom  2       EATOM= -432.3788
 kinetic energy error for atom=    0.0224 (will be added to EATOM!!)
 
 
 POSCAR: Ce7 O12                                 
  positions in direct lattice
  velocities in cartesian coordinates
 exchange correlation table for  LEXCH =        8
   RHO(1)=    0.500       N(1)  =     2000
   RHO(2)=  100.500       N(2)  =     4000
 


--------------------------------------------------------------------------------------------------------


 ion  position               nearest neighbor table
   1  0.000  0.000  0.000-  16 2.30  14 2.30  18 2.30  17 2.30  15 2.30  19 2.30
   2  0.138  0.601  0.300-   8 2.30  14 2.33  16 2.34  10 2.39  11 2.40  13 2.48
   3  0.862  0.399  0.700-   9 2.30  15 2.33  17 2.34  11 2.39  10 2.40  12 2.48
   4  0.300  0.138  0.601-  10 2.30  16 2.33  18 2.34  12 2.39  13 2.40   9 2.48
   5  0.700  0.862  0.399-  11 2.30  17 2.33  19 2.34  13 2.39  12 2.40   8 2.48
   6  0.601  0.300  0.138-  12 2.30  18 2.33  14 2.34   8 2.39   9 2.40  11 2.48
   7  0.399  0.700  0.862-  13 2.30  19 2.33  15 2.34   9 2.39   8 2.40  10 2.48
   8  0.432  0.583  0.178-   2 2.30   6 2.39   7 2.40   5 2.48
   9  0.568  0.417  0.822-   3 2.30   7 2.39   6 2.40   4 2.48
  10  0.178  0.432  0.583-   4 2.30   2 2.39   3 2.40   7 2.48
  11  0.822  0.568  0.417-   5 2.30   3 2.39   2 2.40   6 2.48
  12  0.583  0.178  0.432-   6 2.30   4 2.39   5 2.40   3 2.48
  13  0.417  0.822  0.568-   7 2.30   5 2.39   4 2.40   2 2.48
  14  0.929  0.321  0.070-   1 2.30   2 2.33   6 2.34
  15  0.071  0.679  0.930-   1 2.30   3 2.33   7 2.34
  16  0.070  0.929  0.321-   1 2.30   4 2.33   2 2.34
  17  0.930  0.071  0.679-   1 2.30   5 2.33   3 2.34
  18  0.321  0.070  0.929-   1 2.30   6 2.33   4 2.34
  19  0.679  0.930  0.071-   1 2.30   7 2.33   5 2.34
 
  LATTYP: Found a trigonal (rhomboedric) cell.
 ALAT       =     6.7927792900
 COS(alpha) =    -0.1666154563
  
  Lattice vectors:
  
 A1 = (   6.7927604129,  -0.0101573362,  -0.0123808455)
 A2 = (  -1.1217898573,   6.6994988349,  -0.0123838706)
 A3 = (  -1.1217934960,  -1.3232378714,   6.5675316041)
 Subroutine PRICEL returns:
 Original cell was already a primitive cell.
 

Analysis of symmetry for initial positions (statically):

 Routine SETGRP: Setting up the symmetry group for a 
 trigonal (rhombohedral) supercell.


 Subroutine GETGRP returns: Found  6 space group operations
 (whereof  6 operations were pure point group operations)
 out of a pool of 12 trial point group operations.


The static configuration has the point symmetry S_6 .

Analysis of symmetry for dynamics (positions and initial velocities):

 Subroutine DYNSYM returns: Found  6 space group operations
 (whereof  6 operations were pure point group operations)
 out of a pool of  6 trial space group operations
 (whereof  6 operations were pure point group operations)
 and found also     1 'primitive' translations


The dynamic configuration has the point symmetry S_6 .

Analysis of magnetic symmetry:

 Subroutine MAGSYM returns: Found  6 space group operations
 (whereof  6 operations were pure point group operations)
 out of a pool of  6 trial space group operations
 (whereof  6 operations were pure point group operations)
 and found also     1 'primitive' translations


The magnetic configuration has the point symmetry S_6 .
 
 
 KPOINTS: Auto                                    

Automatic generation of k-mesh.
 
 Subroutine IBZKPT returns following result:
 ===========================================
 
 Found    294 irreducible k-points:
 
 Following reciprocal coordinates:
            Coordinates               Weight
  0.000000  0.000000  0.000000      1.000000
  0.083333  0.000000  0.000000      6.000000
  0.166667  0.000000  0.000000      6.000000
  0.250000  0.000000  0.000000      6.000000
  0.333333  0.000000  0.000000      6.000000
  0.416667  0.000000  0.000000      6.000000
  0.500000  0.000000  0.000000      3.000000
  0.083333  0.083333  0.000000      6.000000
  0.166667  0.083333  0.000000      6.000000
  0.250000  0.083333  0.000000      6.000000
  0.333333  0.083333  0.000000      6.000000
  0.416667  0.083333  0.000000      6.000000
  0.500000  0.083333  0.000000      6.000000
 -0.416667  0.083333  0.000000      6.000000
 -0.333333  0.083333  0.000000      6.000000
 -0.250000  0.083333  0.000000      6.000000
 -0.166667  0.083333  0.000000      6.000000
 -0.083333  0.083333  0.000000      6.000000
  0.083333  0.166667  0.000000      6.000000
  0.166667  0.166667  0.000000      6.000000
  0.250000  0.166667  0.000000      6.000000
  0.333333  0.166667  0.000000      6.000000
  0.416667  0.166667  0.000000      6.000000
  0.500000  0.166667  0.000000      6.000000
 -0.416667  0.166667  0.000000      6.000000
 -0.333333  0.166667  0.000000      6.000000
 -0.250000  0.166667  0.000000      6.000000
 -0.166667  0.166667  0.000000      6.000000
 -0.083333  0.166667  0.000000      6.000000
  0.083333  0.250000  0.000000      6.000000
  0.166667  0.250000  0.000000      6.000000
  0.250000  0.250000  0.000000      6.000000
  0.333333  0.250000  0.000000      6.000000
  0.416667  0.250000  0.000000      6.000000
  0.500000  0.250000  0.000000      6.000000
 -0.416667  0.250000  0.000000      6.000000
 -0.333333  0.250000  0.000000      6.000000
 -0.250000  0.250000  0.000000      6.000000
 -0.166667  0.250000  0.000000      6.000000
 -0.083333  0.250000  0.000000      6.000000
  0.083333  0.333333  0.000000      6.000000
  0.166667  0.333333  0.000000      6.000000
  0.250000  0.333333  0.000000      6.000000
  0.333333  0.333333  0.000000      6.000000
  0.416667  0.333333  0.000000      6.000000
  0.500000  0.333333  0.000000      6.000000
 -0.416667  0.333333  0.000000      6.000000
 -0.333333  0.333333  0.000000      6.000000
 -0.250000  0.333333  0.000000      6.000000
 -0.166667  0.333333  0.000000      6.000000
 -0.083333  0.333333  0.000000      6.000000
  0.083333  0.416667  0.000000      6.000000
  0.166667  0.416667  0.000000      6.000000
  0.250000  0.416667  0.000000      6.000000
  0.333333  0.416667  0.000000      6.000000
  0.416667  0.416667  0.000000      6.000000
  0.500000  0.416667  0.000000      6.000000
 -0.416667  0.416667  0.000000      6.000000
 -0.333333  0.416667  0.000000      6.000000
 -0.250000  0.416667  0.000000      6.000000
 -0.166667  0.416667  0.000000      6.000000
 -0.083333  0.416667  0.000000      6.000000
  0.083333  0.500000  0.000000      6.000000
  0.166667  0.500000  0.000000      6.000000
  0.250000  0.500000  0.000000      6.000000
  0.333333  0.500000  0.000000      6.000000
  0.416667  0.500000  0.000000      6.000000
  0.500000  0.500000  0.000000      3.000000
  0.083333  0.083333  0.083333      2.000000
  0.166667  0.083333  0.083333      6.000000
  0.250000  0.083333  0.083333      6.000000
  0.333333  0.083333  0.083333      6.000000
  0.416667  0.083333  0.083333      6.000000
  0.500000  0.083333  0.083333      6.000000
 -0.416667  0.083333  0.083333      6.000000
 -0.333333  0.083333  0.083333      6.000000
 -0.250000  0.083333  0.083333      6.000000
 -0.166667  0.083333  0.083333      6.000000
 -0.083333  0.083333  0.083333      6.000000
  0.166667  0.166667  0.083333      6.000000
  0.250000  0.166667  0.083333      6.000000
  0.333333  0.166667  0.083333      6.000000
  0.416667  0.166667  0.083333      6.000000
  0.500000  0.166667  0.083333      6.000000
 -0.416667  0.166667  0.083333      6.000000
 -0.333333  0.166667  0.083333      6.000000
 -0.250000  0.166667  0.083333      6.000000
 -0.166667  0.166667  0.083333      6.000000
 -0.083333  0.166667  0.083333      6.000000
  0.166667  0.250000  0.083333      6.000000
  0.250000  0.250000  0.083333      6.000000
  0.333333  0.250000  0.083333      6.000000
  0.416667  0.250000  0.083333      6.000000
  0.500000  0.250000  0.083333      6.000000
 -0.416667  0.250000  0.083333      6.000000
 -0.333333  0.250000  0.083333      6.000000
 -0.250000  0.250000  0.083333      6.000000
 -0.166667  0.250000  0.083333      6.000000
 -0.083333  0.250000  0.083333      6.000000
  0.166667  0.333333  0.083333      6.000000
  0.250000  0.333333  0.083333      6.000000
  0.333333  0.333333  0.083333      6.000000
  0.416667  0.333333  0.083333      6.000000
  0.500000  0.333333  0.083333      6.000000
 -0.416667  0.333333  0.083333      6.000000
 -0.333333  0.333333  0.083333      6.000000
 -0.250000  0.333333  0.083333      6.000000
 -0.166667  0.333333  0.083333      6.000000
 -0.083333  0.333333  0.083333      6.000000
  0.166667  0.416667  0.083333      6.000000
  0.250000  0.416667  0.083333      6.000000
  0.333333  0.416667  0.083333      6.000000
  0.416667  0.416667  0.083333      6.000000
  0.500000  0.416667  0.083333      6.000000
 -0.416667  0.416667  0.083333      6.000000
 -0.333333  0.416667  0.083333      6.000000
 -0.250000  0.416667  0.083333      6.000000
 -0.166667  0.416667  0.083333      6.000000
 -0.083333  0.416667  0.083333      6.000000
  0.166667  0.500000  0.083333      6.000000
  0.250000  0.500000  0.083333      6.000000
  0.333333  0.500000  0.083333      6.000000
  0.416667  0.500000  0.083333      6.000000
  0.500000  0.500000  0.083333      6.000000
 -0.416667  0.500000  0.083333      6.000000
 -0.333333  0.500000  0.083333      6.000000
 -0.250000  0.500000  0.083333      6.000000
 -0.166667  0.500000  0.083333      6.000000
 -0.083333  0.500000  0.083333      6.000000
  0.166667 -0.416667  0.083333      6.000000
  0.250000 -0.416667  0.083333      6.000000
  0.333333 -0.416667  0.083333      6.000000
  0.416667 -0.416667  0.083333      6.000000
  0.500000 -0.416667  0.083333      6.000000
 -0.416667 -0.416667  0.083333      6.000000
 -0.333333 -0.416667  0.083333      6.000000
 -0.250000 -0.416667  0.083333      6.000000
 -0.166667 -0.416667  0.083333      6.000000
 -0.083333 -0.416667  0.083333      6.000000
  0.166667 -0.333333  0.083333      6.000000
  0.250000 -0.333333  0.083333      6.000000
  0.333333 -0.333333  0.083333      6.000000
  0.416667 -0.333333  0.083333      6.000000
  0.500000 -0.333333  0.083333      6.000000
 -0.416667 -0.333333  0.083333      6.000000
 -0.333333 -0.333333  0.083333      6.000000
 -0.250000 -0.333333  0.083333      6.000000
 -0.166667 -0.333333  0.083333      6.000000
 -0.083333 -0.333333  0.083333      6.000000
  0.166667 -0.250000  0.083333      6.000000
  0.250000 -0.250000  0.083333      6.000000
  0.333333 -0.250000  0.083333      6.000000
  0.416667 -0.250000  0.083333      6.000000
  0.500000 -0.250000  0.083333      6.000000
 -0.416667 -0.250000  0.083333      6.000000
 -0.333333 -0.250000  0.083333      6.000000
 -0.250000 -0.250000  0.083333      6.000000
 -0.166667 -0.250000  0.083333      6.000000
 -0.083333 -0.250000  0.083333      6.000000
  0.166667 -0.166667  0.083333      6.000000
  0.250000 -0.166667  0.083333      6.000000
  0.333333 -0.166667  0.083333      6.000000
  0.416667 -0.166667  0.083333      6.000000
  0.500000 -0.166667  0.083333      6.000000
 -0.416667 -0.166667  0.083333      6.000000
 -0.333333 -0.166667  0.083333      6.000000
 -0.250000 -0.166667  0.083333      6.000000
 -0.166667 -0.166667  0.083333      6.000000
 -0.083333 -0.166667  0.083333      6.000000
  0.166667  0.166667  0.166667      2.000000
  0.250000  0.166667  0.166667      6.000000
  0.333333  0.166667  0.166667      6.000000
  0.416667  0.166667  0.166667      6.000000
  0.500000  0.166667  0.166667      6.000000
 -0.416667  0.166667  0.166667      6.000000
 -0.333333  0.166667  0.166667      6.000000
 -0.250000  0.166667  0.166667      6.000000
 -0.166667  0.166667  0.166667      6.000000
  0.250000  0.250000  0.166667      6.000000
  0.333333  0.250000  0.166667      6.000000
  0.416667  0.250000  0.166667      6.000000
  0.500000  0.250000  0.166667      6.000000
 -0.416667  0.250000  0.166667      6.000000
 -0.333333  0.250000  0.166667      6.000000
 -0.250000  0.250000  0.166667      6.000000
 -0.166667  0.250000  0.166667      6.000000
  0.250000  0.333333  0.166667      6.000000
  0.333333  0.333333  0.166667      6.000000
  0.416667  0.333333  0.166667      6.000000
  0.500000  0.333333  0.166667      6.000000
 -0.416667  0.333333  0.166667      6.000000
 -0.333333  0.333333  0.166667      6.000000
 -0.250000  0.333333  0.166667      6.000000
 -0.166667  0.333333  0.166667      6.000000
  0.250000  0.416667  0.166667      6.000000
  0.333333  0.416667  0.166667      6.000000
  0.416667  0.416667  0.166667      6.000000
  0.500000  0.416667  0.166667      6.000000
 -0.416667  0.416667  0.166667      6.000000
 -0.333333  0.416667  0.166667      6.000000
 -0.250000  0.416667  0.166667      6.000000
 -0.166667  0.416667  0.166667      6.000000
  0.250000  0.500000  0.166667      6.000000
  0.333333  0.500000  0.166667      6.000000
  0.416667  0.500000  0.166667      6.000000
  0.500000  0.500000  0.166667      6.000000
 -0.416667  0.500000  0.166667      6.000000
 -0.333333  0.500000  0.166667      6.000000
 -0.250000  0.500000  0.166667      6.000000
 -0.166667  0.500000  0.166667      6.000000
  0.250000 -0.416667  0.166667      6.000000
  0.333333 -0.416667  0.166667      6.000000
  0.416667 -0.416667  0.166667      6.000000
  0.500000 -0.416667  0.166667      6.000000
 -0.416667 -0.416667  0.166667      6.000000
 -0.333333 -0.416667  0.166667      6.000000
 -0.250000 -0.416667  0.166667      6.000000
 -0.166667 -0.416667  0.166667      6.000000
  0.250000 -0.333333  0.166667      6.000000
  0.333333 -0.333333  0.166667      6.000000
  0.416667 -0.333333  0.166667      6.000000
  0.500000 -0.333333  0.166667      6.000000
 -0.416667 -0.333333  0.166667      6.000000
 -0.333333 -0.333333  0.166667      6.000000
 -0.250000 -0.333333  0.166667      6.000000
 -0.166667 -0.333333  0.166667      6.000000
  0.250000 -0.250000  0.166667      6.000000
  0.333333 -0.250000  0.166667      6.000000
  0.416667 -0.250000  0.166667      6.000000
  0.500000 -0.250000  0.166667      6.000000
 -0.416667 -0.250000  0.166667      6.000000
 -0.333333 -0.250000  0.166667      6.000000
 -0.250000 -0.250000  0.166667      6.000000
 -0.166667 -0.250000  0.166667      6.000000
  0.250000  0.250000  0.250000      2.000000
  0.333333  0.250000  0.250000      6.000000
  0.416667  0.250000  0.250000      6.000000
  0.500000  0.250000  0.250000      6.000000
 -0.416667  0.250000  0.250000      6.000000
 -0.333333  0.250000  0.250000      6.000000
 -0.250000  0.250000  0.250000      6.000000
  0.333333  0.333333  0.250000      6.000000
  0.416667  0.333333  0.250000      6.000000
  0.500000  0.333333  0.250000      6.000000
 -0.416667  0.333333  0.250000      6.000000
 -0.333333  0.333333  0.250000      6.000000
 -0.250000  0.333333  0.250000      6.000000
  0.333333  0.416667  0.250000      6.000000
  0.416667  0.416667  0.250000      6.000000
  0.500000  0.416667  0.250000      6.000000
 -0.416667  0.416667  0.250000      6.000000
 -0.333333  0.416667  0.250000      6.000000
 -0.250000  0.416667  0.250000      6.000000
  0.333333  0.500000  0.250000      6.000000
  0.416667  0.500000  0.250000      6.000000
  0.500000  0.500000  0.250000      6.000000
 -0.416667  0.500000  0.250000      6.000000
 -0.333333  0.500000  0.250000      6.000000
 -0.250000  0.500000  0.250000      6.000000
  0.333333 -0.416667  0.250000      6.000000
  0.416667 -0.416667  0.250000      6.000000
  0.500000 -0.416667  0.250000      6.000000
 -0.416667 -0.416667  0.250000      6.000000
 -0.333333 -0.416667  0.250000      6.000000
 -0.250000 -0.416667  0.250000      6.000000
  0.333333 -0.333333  0.250000      6.000000
  0.416667 -0.333333  0.250000      6.000000
  0.500000 -0.333333  0.250000      6.000000
 -0.416667 -0.333333  0.250000      6.000000
 -0.333333 -0.333333  0.250000      6.000000
 -0.250000 -0.333333  0.250000      6.000000
  0.333333  0.333333  0.333333      2.000000
  0.416667  0.333333  0.333333      6.000000
  0.500000  0.333333  0.333333      6.000000
 -0.416667  0.333333  0.333333      6.000000
 -0.333333  0.333333  0.333333      6.000000
  0.416667  0.416667  0.333333      6.000000
  0.500000  0.416667  0.333333      6.000000
 -0.416667  0.416667  0.333333      6.000000
 -0.333333  0.416667  0.333333      6.000000
  0.416667  0.500000  0.333333      6.000000
  0.500000  0.500000  0.333333      6.000000
 -0.416667  0.500000  0.333333      6.000000
 -0.333333  0.500000  0.333333      6.000000
  0.416667 -0.416667  0.333333      6.000000
  0.500000 -0.416667  0.333333      6.000000
 -0.416667 -0.416667  0.333333      6.000000
 -0.333333 -0.416667  0.333333      6.000000
  0.416667  0.416667  0.416667      2.000000
  0.500000  0.416667  0.416667      6.000000
 -0.416667  0.416667  0.416667      6.000000
  0.500000  0.500000  0.416667      6.000000
 -0.416667  0.500000  0.416667      6.000000
  0.500000  0.500000  0.500000      1.000000
 
 Following cartesian coordinates:
            Coordinates               Weight
  0.000000  0.000000  0.000000      1.000000
  0.012276  0.002060  0.002512      6.000000
  0.024551  0.004120  0.005024      6.000000
  0.036827  0.006180  0.007536      6.000000
  0.049102  0.008240  0.010047      6.000000
  0.061378  0.010301  0.012559      6.000000
  0.073654  0.012361  0.015071      3.000000
  0.012299  0.014507  0.005024      6.000000
  0.024574  0.016568  0.007536      6.000000
  0.036850  0.018628  0.010047      6.000000
  0.049126  0.020688  0.012559      6.000000
  0.061401  0.022748  0.015071      6.000000
  0.073677  0.024808  0.017583      6.000000
 -0.061355  0.002147 -0.010047      6.000000
 -0.049079  0.004207 -0.007536      6.000000
 -0.036804  0.006267 -0.005024      6.000000
 -0.024528  0.008327 -0.002512      6.000000
 -0.012252  0.010387  0.000000      6.000000
  0.012322  0.026955  0.007536      6.000000
  0.024598  0.029015  0.010047      6.000000
  0.036873  0.031075  0.012559      6.000000
  0.049149  0.033135  0.015071      6.000000
  0.061424  0.035195  0.017583      6.000000
  0.073700  0.037255  0.020095      6.000000
 -0.061332  0.014594 -0.007536      6.000000
 -0.049056  0.016654 -0.005024      6.000000
 -0.036780  0.018714 -0.002512      6.000000
 -0.024505  0.020774  0.000000      6.000000
 -0.012229  0.022834  0.002512      6.000000
  0.012345  0.039402  0.010047      6.000000
  0.024621  0.041462  0.012559      6.000000
  0.036896  0.043522  0.015071      6.000000
  0.049172  0.045582  0.017583      6.000000
  0.061448  0.047642  0.020095      6.000000
  0.073723  0.049703  0.022607      6.000000
 -0.061309  0.027041 -0.005024      6.000000
 -0.049033  0.029101 -0.002512      6.000000
 -0.036757  0.031161  0.000000      6.000000
 -0.024482  0.033222  0.002512      6.000000
 -0.012206  0.035282  0.005024      6.000000
  0.012368  0.051849  0.012559      6.000000
  0.024644  0.053909  0.015071      6.000000
  0.036920  0.055969  0.017583      6.000000
  0.049195  0.058030  0.020095      6.000000
  0.061471  0.060090  0.022607      6.000000
  0.073746  0.062150  0.025119      6.000000
 -0.061285  0.039488 -0.002512      6.000000
 -0.049010  0.041549  0.000000      6.000000
 -0.036734  0.043609  0.002512      6.000000
 -0.024458  0.045669  0.005024      6.000000
 -0.012183  0.047729  0.007536      6.000000
  0.012392  0.064296  0.015071      6.000000
  0.024667  0.066357  0.017583      6.000000
  0.036943  0.068417  0.020095      6.000000
  0.049218  0.070477  0.022607      6.000000
  0.061494  0.072537  0.025119      6.000000
  0.073770  0.074597  0.027630      6.000000
 -0.061262  0.051936  0.000000      6.000000
 -0.048987  0.053996  0.002512      6.000000
 -0.036711  0.056056  0.005024      6.000000
 -0.024435  0.058116  0.007536      6.000000
 -0.012160  0.060176  0.010047      6.000000
  0.012415  0.076744  0.017583      6.000000
  0.024690  0.078804  0.020095      6.000000
  0.036966  0.080864  0.022607      6.000000
  0.049242  0.082924  0.025119      6.000000
  0.061517  0.084984  0.027630      6.000000
  0.073793  0.087044  0.030142      3.000000
  0.012322  0.014535  0.017722      2.000000
  0.024598  0.016595  0.020234      6.000000
  0.036873  0.018655  0.022746      6.000000
  0.049149  0.020715  0.025257      6.000000
  0.061424  0.022775  0.027769      6.000000
  0.073700  0.024835  0.030281      6.000000
 -0.061332  0.002174  0.002651      6.000000
 -0.049056  0.004234  0.005163      6.000000
 -0.036780  0.006294  0.007674      6.000000
 -0.024505  0.008354  0.010186      6.000000
 -0.012229  0.010415  0.012698      6.000000
  0.024621  0.029042  0.022746      6.000000
  0.036896  0.031102  0.025257      6.000000
  0.049172  0.033162  0.027769      6.000000
  0.061448  0.035222  0.030281      6.000000
  0.073723  0.037283  0.032793      6.000000
 -0.061309  0.014621  0.005163      6.000000
 -0.049033  0.016681  0.007674      6.000000
 -0.036757  0.018742  0.010186      6.000000
 -0.024482  0.020802  0.012698      6.000000
 -0.012206  0.022862  0.015210      6.000000
  0.024644  0.041489  0.025257      6.000000
  0.036920  0.043550  0.027769      6.000000
  0.049195  0.045610  0.030281      6.000000
  0.061471  0.047670  0.032793      6.000000
  0.073746  0.049730  0.035305      6.000000
 -0.061285  0.027069  0.007674      6.000000
 -0.049010  0.029129  0.010186      6.000000
 -0.036734  0.031189  0.012698      6.000000
 -0.024458  0.033249  0.015210      6.000000
 -0.012183  0.035309  0.017722      6.000000
  0.024667  0.053937  0.027769      6.000000
  0.036943  0.055997  0.030281      6.000000
  0.049218  0.058057  0.032793      6.000000
  0.061494  0.060117  0.035305      6.000000
  0.073770  0.062177  0.037817      6.000000
 -0.061262  0.039516  0.010186      6.000000
 -0.048987  0.041576  0.012698      6.000000
 -0.036711  0.043636  0.015210      6.000000
 -0.024435  0.045696  0.017722      6.000000
 -0.012160  0.047756  0.020234      6.000000
  0.024690  0.066384  0.030281      6.000000
  0.036966  0.068444  0.032793      6.000000
  0.049242  0.070504  0.035305      6.000000
  0.061517  0.072564  0.037817      6.000000
  0.073793  0.074624  0.040329      6.000000
 -0.061239  0.051963  0.012698      6.000000
 -0.048963  0.054023  0.015210      6.000000
 -0.036688  0.056083  0.017722      6.000000
 -0.024412  0.058143  0.020234      6.000000
 -0.012136  0.060204  0.022746      6.000000
  0.024714  0.078831  0.032793      6.000000
  0.036989  0.080891  0.035305      6.000000
  0.049265  0.082951  0.037817      6.000000
  0.061540  0.085012  0.040329      6.000000
  0.073816  0.087072  0.042840      6.000000
 -0.061216  0.064410  0.015210      6.000000
 -0.048940  0.066470  0.017722      6.000000
 -0.036665  0.068531  0.020234      6.000000
 -0.024389  0.070591  0.022746      6.000000
 -0.012113  0.072651  0.025257      6.000000
  0.024458 -0.058089  0.005163      6.000000
  0.036734 -0.056029  0.007674      6.000000
  0.049010 -0.053969  0.010186      6.000000
  0.061285 -0.051908  0.012698      6.000000
  0.073561 -0.049848  0.015210      6.000000
 -0.061471 -0.072510 -0.012420      6.000000
 -0.049195 -0.070449 -0.009909      6.000000
 -0.036920 -0.068389 -0.007397      6.000000
 -0.024644 -0.066329 -0.004885      6.000000
 -0.012368 -0.064269 -0.002373      6.000000
  0.024482 -0.045641  0.007674      6.000000
  0.036757 -0.043581  0.010186      6.000000
  0.049033 -0.041521  0.012698      6.000000
  0.061309 -0.039461  0.015210      6.000000
  0.073584 -0.037401  0.017722      6.000000
 -0.061448 -0.060062 -0.009909      6.000000
 -0.049172 -0.058002 -0.007397      6.000000
 -0.036896 -0.055942 -0.004885      6.000000
 -0.024621 -0.053882 -0.002373      6.000000
 -0.012345 -0.051822  0.000139      6.000000
  0.024505 -0.033194  0.010186      6.000000
  0.036780 -0.031134  0.012698      6.000000
  0.049056 -0.029074  0.015210      6.000000
  0.061332 -0.027014  0.017722      6.000000
  0.073607 -0.024954  0.020234      6.000000
 -0.061424 -0.047615 -0.007397      6.000000
 -0.049149 -0.045555 -0.004885      6.000000
 -0.036873 -0.043495 -0.002373      6.000000
 -0.024598 -0.041435  0.000139      6.000000
 -0.012322 -0.039375  0.002651      6.000000
  0.024528 -0.020747  0.012698      6.000000
  0.036804 -0.018687  0.015210      6.000000
  0.049079 -0.016627  0.017722      6.000000
  0.061355 -0.014567  0.020234      6.000000
  0.073631 -0.012506  0.022746      6.000000
 -0.061401 -0.035168 -0.004885      6.000000
 -0.049126 -0.033108 -0.002373      6.000000
 -0.036850 -0.031048  0.000139      6.000000
 -0.024574 -0.028987  0.002651      6.000000
 -0.012299 -0.026927  0.005163      6.000000
  0.024644  0.029069  0.035444      2.000000
  0.036920  0.031130  0.037956      6.000000
  0.049195  0.033190  0.040467      6.000000
  0.061471  0.035250  0.042979      6.000000
  0.073746  0.037310  0.045491      6.000000
 -0.061285  0.014649  0.017861      6.000000
 -0.049010  0.016709  0.020373      6.000000
 -0.036734  0.018769  0.022884      6.000000
 -0.024458  0.020829  0.025396      6.000000
  0.036943  0.043577  0.040467      6.000000
  0.049218  0.045637  0.042979      6.000000
  0.061494  0.047697  0.045491      6.000000
  0.073770  0.049757  0.048003      6.000000
 -0.061262  0.027096  0.020373      6.000000
 -0.048987  0.029156  0.022884      6.000000
 -0.036711  0.031216  0.025396      6.000000
 -0.024435  0.033276  0.027908      6.000000
  0.036966  0.056024  0.042979      6.000000
  0.049242  0.058084  0.045491      6.000000
  0.061517  0.060144  0.048003      6.000000
  0.073793  0.062205  0.050515      6.000000
 -0.061239  0.039543  0.022884      6.000000
 -0.048963  0.041603  0.025396      6.000000
 -0.036688  0.043663  0.027908      6.000000
 -0.024412  0.045724  0.030420      6.000000
  0.036989  0.068471  0.045491      6.000000
  0.049265  0.070532  0.048003      6.000000
  0.061540  0.072592  0.050515      6.000000
  0.073816  0.074652  0.053027      6.000000
 -0.061216  0.051990  0.025396      6.000000
 -0.048940  0.054051  0.027908      6.000000
 -0.036665  0.056111  0.030420      6.000000
 -0.024389  0.058171  0.032932      6.000000
  0.037012  0.080919  0.048003      6.000000
  0.049288  0.082979  0.050515      6.000000
  0.061564  0.085039  0.053027      6.000000
  0.073839  0.087099  0.055539      6.000000
 -0.061193  0.064438  0.027908      6.000000
 -0.048917  0.066498  0.030420      6.000000
 -0.036641  0.068558  0.032932      6.000000
 -0.024366  0.070618  0.035444      6.000000
  0.036757 -0.056001  0.020373      6.000000
  0.049033 -0.053941  0.022884      6.000000
  0.061309 -0.051881  0.025396      6.000000
  0.073584 -0.049821  0.027908      6.000000
 -0.061448 -0.072482  0.000278      6.000000
 -0.049172 -0.070422  0.002790      6.000000
 -0.036896 -0.068362  0.005301      6.000000
 -0.024621 -0.066302  0.007813      6.000000
  0.036780 -0.043554  0.022884      6.000000
  0.049056 -0.041494  0.025396      6.000000
  0.061332 -0.039434  0.027908      6.000000
  0.073607 -0.037374  0.030420      6.000000
 -0.061425 -0.060035  0.002790      6.000000
 -0.049149 -0.057975  0.005301      6.000000
 -0.036873 -0.055915  0.007813      6.000000
 -0.024598 -0.053855  0.010325      6.000000
  0.036804 -0.031107  0.025396      6.000000
  0.049079 -0.029047  0.027908      6.000000
  0.061355 -0.026986  0.030420      6.000000
  0.073631 -0.024926  0.032932      6.000000
 -0.061401 -0.047588  0.005301      6.000000
 -0.049126 -0.045528  0.007813      6.000000
 -0.036850 -0.043467  0.010325      6.000000
 -0.024574 -0.041407  0.012837      6.000000
  0.036966  0.043604  0.053166      2.000000
  0.049242  0.045664  0.055677      6.000000
  0.061517  0.047724  0.058189      6.000000
  0.073793  0.049785  0.060701      6.000000
 -0.061239  0.027123  0.033071      6.000000
 -0.048963  0.029183  0.035583      6.000000
 -0.036688  0.031244  0.038094      6.000000
  0.049265  0.058112  0.058189      6.000000
  0.061540  0.060172  0.060701      6.000000
  0.073816  0.062232  0.063213      6.000000
 -0.061216  0.039571  0.035583      6.000000
 -0.048940  0.041631  0.038094      6.000000
 -0.036665  0.043691  0.040606      6.000000
  0.049288  0.070559  0.060701      6.000000
  0.061564  0.072619  0.063213      6.000000
  0.073839  0.074679  0.065725      6.000000
 -0.061193  0.052018  0.038094      6.000000
 -0.048917  0.054078  0.040606      6.000000
 -0.036641  0.056138  0.043118      6.000000
  0.049311  0.083006  0.063213      6.000000
  0.061587  0.085066  0.065725      6.000000
  0.073862  0.087126  0.068237      6.000000
 -0.061169  0.064465  0.040606      6.000000
 -0.048894  0.066525  0.043118      6.000000
 -0.036618  0.068585  0.045630      6.000000
  0.049056 -0.053914  0.035583      6.000000
  0.061332 -0.051854  0.038094      6.000000
  0.073607 -0.049794  0.040606      6.000000
 -0.061425 -0.072455  0.012976      6.000000
 -0.049149 -0.070395  0.015488      6.000000
 -0.036873 -0.068335  0.018000      6.000000
  0.049079 -0.041467  0.038094      6.000000
  0.061355 -0.039406  0.040606      6.000000
  0.073631 -0.037346  0.043118      6.000000
 -0.061401 -0.060008  0.015488      6.000000
 -0.049126 -0.057947  0.018000      6.000000
 -0.036850 -0.055887  0.020511      6.000000
  0.049288  0.058139  0.070888      2.000000
  0.061564  0.060199  0.073399      6.000000
  0.073839  0.062259  0.075911      6.000000
 -0.061193  0.039598  0.048281      6.000000
 -0.048917  0.041658  0.050793      6.000000
  0.061587  0.072646  0.075911      6.000000
  0.073862  0.074706  0.078423      6.000000
 -0.061169  0.052045  0.050793      6.000000
 -0.048894  0.054105  0.053304      6.000000
  0.061610  0.085094  0.078423      6.000000
  0.073886  0.087154  0.080935      6.000000
 -0.061146  0.064492  0.053304      6.000000
 -0.048871  0.066553  0.055816      6.000000
  0.061355 -0.051826  0.050793      6.000000
  0.073631 -0.049766  0.053305      6.000000
 -0.061401 -0.072428  0.025674      6.000000
 -0.049126 -0.070367  0.028186      6.000000
  0.061610  0.072674  0.088609      2.000000
  0.073886  0.074734  0.091121      6.000000
 -0.061146  0.052073  0.063491      6.000000
  0.073909  0.087181  0.093633      6.000000
 -0.061123  0.064520  0.066003      6.000000
  0.073932  0.087208  0.106331      1.000000
 
 TETIRR: Found   5059 inequivalent tetrahedra from    10368


--------------------------------------------------------------------------------------------------------




 Dimension of arrays:
   k-points           NKPTS =    294   k-points in BZ     NKDIM =    294   number of bands    NBANDS=    104
   number of dos      NEDOS =   1001   number of ions     NIONS =     19
   non local maximal  LDIM  =      8   non local SUM 2l+1 LMDIM =     32
   total plane-waves  NPLWV = 125000
   max r-space proj   IRMAX =      1   max aug-charges    IRDMAX= 145880
   dimension x,y,z NGX =    50 NGY =   50 NGZ =   50
   dimension x,y,z NGXF=   100 NGYF=  100 NGZF=  100
   support grid    NGXF=   200 NGYF=  200 NGZF=  200
   ions per type =               7  12
 NGX,Y,Z   is equivalent  to a cutoff of  12.24, 12.24, 12.24 a.u.
 NGXF,Y,Z  is equivalent  to a cutoff of  24.47, 24.47, 24.47 a.u.


 I would recommend the setting:
   dimension x,y,z NGX =    50 NGY =   50 NGZ =   50
 SYSTEM =  unknown system                          
 POSCAR =  Ce7 O12                                 

 Startparameter for this run:
   NWRITE =      2    write-flag & timer
   PREC   = accura    normal or accurate (medium, high low for compatibility)
   ISTART =      0    job   : 0-new  1-cont  2-samecut
   ICHARG =     11    charge: 1-file 2-atom 10-const
   ISPIN  =      2    spin polarized calculation?
   LNONCOLLINEAR =      F non collinear calculations
   LSORBIT =      F    spin-orbit coupling
   INIWAV =      1    electr: 0-lowe 1-rand  2-diag
   LASPH  =      T    aspherical Exc in radial PAW
   METAGGA=      F    non-selfconsistent MetaGGA calc.

 Electronic Relaxation 1
   ENCUT  =  500.0 eV  36.75 Ry    6.06 a.u.  12.38 12.38 12.38*2*pi/ulx,y,z
   ENINI  =  500.0     initial cutoff
   ENAUG  =  659.4 eV  augmentation charge cutoff
   NELM   =     60;   NELMIN=  5; NELMDL= -5     # of ELM steps 
   EDIFF  = 0.1E-04   stopping-criterion for ELM
   LREAL  =      F    real-space projection
   NLSPLINE    = F    spline interpolate recip. space projectors
   LCOMPAT=      F    compatible to vasp.4.4
   GGA_COMPAT  = T    GGA compatible to vasp.4.4-vasp.4.6
   LMAXPAW     = -100 max onsite density
   LMAXMIX     =    2 max onsite mixed and CHGCAR
   VOSKOWN=      0    Vosko Wilk Nusair interpolation
   ROPT   =    0.00000   0.00000
 Ionic relaxation
   EDIFFG = 0.1E-03   stopping-criterion for IOM
   NSW    =      0    number of steps for IOM
   NBLOCK =      1;   KBLOCK =      1    inner block; outer block 
   IBRION =     -1    ionic relax: 0-MD 1-quasi-New 2-CG
   NFREE  =      0    steps in history (QN), initial steepest desc. (CG)
   ISIF   =      2    stress and relaxation
   IWAVPR =     10    prediction:  0-non 1-charg 2-wave 3-comb
   ISYM   =      2    0-nonsym 1-usesym 2-fastsym
   LCORR  =      T    Harris-Foulkes like correction to forces

   POTIM  = 0.5000    time-step for ionic-motion
   TEIN   =    0.0    initial temperature
   TEBEG  =    0.0;   TEEND  =   0.0 temperature during run
   SMASS  =  -3.00    Nose mass-parameter (am)
   estimated Nose-frequenzy (Omega)   =  0.10E-29 period in steps =****** mass=  -0.105E-26a.u.
   SCALEE = 1.0000    scale energy and forces
   NPACO  =    256;   APACO  = 16.0  distance and # of slots for P.C.
   PSTRESS=    0.0 pullay stress

  Mass of Ions in am
   POMASS = 140.12 16.00
  Ionic Valenz
   ZVAL   =  12.00  6.00
  Atomic Wigner-Seitz radii
   RWIGS  =  -1.00 -1.00
  virtual crystal weights 
   VCA    =   1.00  1.00
   NELECT =     156.0000    total number of electrons
   NUPDOWN=      -1.0000    fix difference up-down

 DOS related values:
   EMIN   = -20.00;   EMAX   = 20.00  energy-range for DOS
   EFERMI =   0.00
   ISMEAR =    -5;   SIGMA  =   0.01  broadening in eV -4-tet -1-fermi 0-gaus

 Electronic relaxation 2 (details)
   IALGO  =     38    algorithm
   LDIAG  =      T    sub-space diagonalisation (order eigenvalues)
   LSUBROT=      T    optimize rotation matrix (better conditioning)
   TURBO    =      0    0=normal 1=particle mesh
   IRESTART =      0    0=no restart 2=restart with 2 vectors
   NREBOOT  =      0    no. of reboots
   NMIN     =      0    reboot dimension
   EREF     =   0.00    reference energy to select bands
   IMIX   =      4    mixing-type and parameters
     AMIX     =   0.20;   BMIX     =  1.00
     AMIX_MAG =   0.80;   BMIX_MAG =  1.00
     AMIN     =   0.10
     WC   =   100.;   INIMIX=   1;  MIXPRE=   1

 Intra band minimization:
   WEIMIN = 0.0000     energy-eigenvalue tresh-hold
   EBREAK =  0.24E-07  absolut break condition
   DEPER  =   0.30     relativ break condition  

   TIME   =   0.40     timestep for ELM

  volume/ion in A,a.u.               =      15.71       106.05
  Fermi-wavevector in a.u.,A,eV,Ry     =   1.318551  2.491701 23.654785  1.738578
  Thomas-Fermi vector in A             =   2.448513
 
 Write flags
   LWAVE  =      F    write WAVECAR
   LCHARG =      F    write CHGCAR
   LVTOT  =      F    write LOCPOT, total local potential
   LVHAR  =      F    write LOCPOT, Hartree potential only
   LELF   =      F    write electronic localiz. function (ELF)
   LORBIT =     10    0 simple, 1 ext, 2 COOP (PROOUT)


 Dipole corrections
   LMONO  =      F    monopole corrections only (constant potential shift)
   LDIPOL =      F    correct potential (dipole corrections)
   IDIPOL =      0    1-x, 2-y, 3-z, 4-all directions 
   EPSILON=  1.0000000 bulk dielectric constant

 Exchange correlation treatment:
   GGA     =    --    GGA type
   LEXCH   =     8    internal setting for exchange type
   VOSKOWN=      0    Vosko Wilk Nusair interpolation
   LHFCALC =     F    Hartree Fock is set to
   LHFONE  =     F    Hartree Fock one center treatment
   AEXX    =    0.0000 exact exchange contribution

 Linear response parameters
   LEPSILON=     F    determine dielectric tensor
   LRPA    =     F    only Hartree local field effects (RPA)
   LNABLA  =     F    use nabla operator in PAW spheres
   LVEL    =     F    velocity operator in full k-point grid
   LINTERFAST=   F  fast interpolation
   KINTER  =     0    interpolate to denser k-point grid
   CSHIFT  =0.1000    complex shift for real part using Kramers Kronig
   OMEGAMAX=  -1.0    maximum frequency
   RTIME   =    0.100 relaxation time in fs

 Orbital magnetization related:
   ORBITALMAG=     F  switch on orbital magnetization
   LCHIMAG   =     F  perturbation theory with respect to B field
   DQ        =  0.001000  dq finite difference perturbation B field



--------------------------------------------------------------------------------------------------------


 Static calculation
 charge density and potential remain constant during run
 spin polarized calculation
 Variant of blocked Davidson
 Davidson routine will perform the subspace rotation
 perform sub-space diagonalisation
    after iterative eigenvector-optimisation
 no mixing
 using additional bands           26
 reciprocal scheme for non local part
 use partial core corrections
 calculate Harris-corrections to forces 
   (improved forces if not selfconsistent)
 use gradient corrections 
 WARNING: stress and forces are not correct
  (second derivative of E(xc) not defined)
 use of overlap-Matrix (Vanderbilt PP)
 Fermi weights with tetrahedron method with Bloechl corrections


--------------------------------------------------------------------------------------------------------


  energy-cutoff  :      500.00
  volume of cell :      298.58
      direct lattice vectors                 reciprocal lattice vectors
     6.792760413 -0.010157336 -0.012380845     0.147307461  0.024721445  0.030142360
    -1.121789857  6.699498835 -0.012383871     0.000278290  0.149367212  0.030142304
    -1.121793496 -1.323237871  6.567531604     0.000278223  0.000328254  0.152377868

  length of vectors
     6.792779290  6.792779290  6.792779290     0.152378476  0.152378476  0.152378476


 
 k-points in units of 2pi/SCALE and weight: Auto                                    
   0.00000000  0.00000000  0.00000000       0.001
   0.01227562  0.00206012  0.00251186       0.003
   0.02455124  0.00412024  0.00502373       0.003
   0.03682687  0.00618036  0.00753559       0.003
   0.04910249  0.00824048  0.01004745       0.003
   0.06137811  0.01030060  0.01255932       0.003
   0.07365373  0.01236072  0.01507118       0.002
   0.01229881  0.01450739  0.00502372       0.003
   0.02457443  0.01656751  0.00753559       0.003
   0.03685006  0.01862763  0.01004745       0.003
   0.04912568  0.02068775  0.01255931       0.003
   0.06140130  0.02274787  0.01507118       0.003
   0.07367692  0.02480799  0.01758304       0.003
  -0.06135492  0.00214667 -0.01004746       0.003
  -0.04907930  0.00420679 -0.00753559       0.003
  -0.03680367  0.00626691 -0.00502373       0.003
  -0.02452805  0.00832703 -0.00251187       0.003
  -0.01225243  0.01038715  0.00000000       0.003
   0.01232200  0.02695466  0.00753558       0.003
   0.02459763  0.02901478  0.01004744       0.003
   0.03687325  0.03107490  0.01255931       0.003
   0.04914887  0.03313502  0.01507117       0.003
   0.06142449  0.03519514  0.01758303       0.003
   0.07370011  0.03725526  0.02009490       0.003
  -0.06133173  0.01459393 -0.00753560       0.003
  -0.04905611  0.01665405 -0.00502374       0.003
  -0.03678048  0.01871417 -0.00251187       0.003
  -0.02450486  0.02077429 -0.00000001       0.003
  -0.01222924  0.02283441  0.00251185       0.003
   0.01234519  0.03940192  0.01004744       0.003
   0.02462082  0.04146204  0.01255930       0.003
   0.03689644  0.04352216  0.01507117       0.003
   0.04917206  0.04558228  0.01758303       0.003
   0.06144768  0.04764241  0.02009489       0.003
   0.07372330  0.04970253  0.02260676       0.003
  -0.06130854  0.02704120 -0.00502374       0.003
  -0.04903291  0.02910132 -0.00251188       0.003
  -0.03675729  0.03116144 -0.00000001       0.003
  -0.02448167  0.03322156  0.00251185       0.003
  -0.01220605  0.03528168  0.00502371       0.003
   0.01236839  0.05184919  0.01255930       0.003
   0.02464401  0.05390931  0.01507116       0.003
   0.03691963  0.05596943  0.01758302       0.003
   0.04919525  0.05802955  0.02009489       0.003
   0.06147087  0.06008967  0.02260675       0.003
   0.07374649  0.06214979  0.02511861       0.003
  -0.06128535  0.03948847 -0.00251188       0.003
  -0.04900972  0.04154859 -0.00000002       0.003
  -0.03673410  0.04360871  0.00251184       0.003
  -0.02445848  0.04566883  0.00502371       0.003
  -0.01218286  0.04772895  0.00753557       0.003
   0.01239158  0.06429646  0.01507116       0.003
   0.02466720  0.06635658  0.01758302       0.003
   0.03694282  0.06841670  0.02009488       0.003
   0.04921844  0.07047682  0.02260675       0.003
   0.06149406  0.07253694  0.02511861       0.003
   0.07376969  0.07459706  0.02763047       0.003
  -0.06126215  0.05193574 -0.00000002       0.003
  -0.04898653  0.05399586  0.00251184       0.003
  -0.03671091  0.05605598  0.00502370       0.003
  -0.02443529  0.05811610  0.00753557       0.003
  -0.01215967  0.06017622  0.01004743       0.003
   0.01241477  0.07674373  0.01758302       0.003
   0.02469039  0.07880385  0.02009488       0.003
   0.03696601  0.08086397  0.02260674       0.003
   0.04924163  0.08292409  0.02511861       0.003
   0.06151725  0.08498421  0.02763047       0.003
   0.07379288  0.08704433  0.03014233       0.002
   0.01232200  0.01453474  0.01772188       0.001
   0.02459762  0.01659486  0.02023374       0.003
   0.03687324  0.01865498  0.02274560       0.003
   0.04914886  0.02071510  0.02525747       0.003
   0.06142448  0.02277522  0.02776933       0.003
   0.07370011  0.02483534  0.03028119       0.003
  -0.06133173  0.00217402  0.00265070       0.003
  -0.04905611  0.00423414  0.00516256       0.003
  -0.03678049  0.00629426  0.00767442       0.003
  -0.02450487  0.00835438  0.01018629       0.003
  -0.01222925  0.01041450  0.01269815       0.003
   0.02462081  0.02904213  0.02274560       0.003
   0.03689643  0.03110225  0.02525746       0.003
   0.04917205  0.03316237  0.02776933       0.003
   0.06144768  0.03522249  0.03028119       0.003
   0.07372330  0.03728261  0.03279305       0.003
  -0.06130854  0.01462129  0.00516256       0.003
  -0.04903292  0.01668141  0.00767442       0.003
  -0.03675730  0.01874153  0.01018628       0.003
  -0.02448168  0.02080165  0.01269815       0.003
  -0.01220605  0.02286177  0.01521001       0.003
   0.02464400  0.04148940  0.02525746       0.003
   0.03691962  0.04354952  0.02776932       0.003
   0.04919524  0.04560964  0.03028119       0.003
   0.06147087  0.04766976  0.03279305       0.003
   0.07374649  0.04972988  0.03530491       0.003
  -0.06128535  0.02706856  0.00767441       0.003
  -0.04900973  0.02912868  0.01018628       0.003
  -0.03673411  0.03118880  0.01269814       0.003
  -0.02445849  0.03324892  0.01521001       0.003
  -0.01218286  0.03530904  0.01772187       0.003
   0.02466719  0.05393667  0.02776932       0.003
   0.03694281  0.05599679  0.03028118       0.003
   0.04921844  0.05805691  0.03279304       0.003
   0.06149406  0.06011703  0.03530491       0.003
   0.07376968  0.06217715  0.03781677       0.003
  -0.06126216  0.03951582  0.01018627       0.003
  -0.04898654  0.04157594  0.01269814       0.003
  -0.03671092  0.04363606  0.01521000       0.003
  -0.02443529  0.04569618  0.01772186       0.003
  -0.01215967  0.04775630  0.02023373       0.003
   0.02469038  0.06638393  0.03028118       0.003
   0.03696600  0.06844405  0.03279304       0.003
   0.04924163  0.07050417  0.03530490       0.003
   0.06151725  0.07256430  0.03781677       0.003
   0.07379287  0.07462442  0.04032863       0.003
  -0.06123897  0.05196309  0.01269813       0.003
  -0.04896335  0.05402321  0.01521000       0.003
  -0.03668773  0.05608333  0.01772186       0.003
  -0.02441210  0.05814345  0.02023372       0.003
  -0.01213648  0.06020357  0.02274559       0.003
   0.02471357  0.07883120  0.03279303       0.003
   0.03698920  0.08089132  0.03530490       0.003
   0.04926482  0.08295144  0.03781676       0.003
   0.06154044  0.08501156  0.04032862       0.003
   0.07381606  0.08707168  0.04284049       0.003
  -0.06121578  0.06441036  0.01520999       0.003
  -0.04894016  0.06647048  0.01772185       0.003
  -0.03666453  0.06853060  0.02023372       0.003
  -0.02438891  0.07059072  0.02274558       0.003
  -0.01211329  0.07265084  0.02525744       0.003
   0.02445847 -0.05808874  0.00516259       0.003
   0.03673410 -0.05602862  0.00767445       0.003
   0.04900972 -0.05396850  0.01018632       0.003
   0.06128534 -0.05190838  0.01269818       0.003
   0.07356096 -0.04984826  0.01521004       0.003
  -0.06147088 -0.07250959 -0.01242045       0.003
  -0.04919526 -0.07044947 -0.00990859       0.003
  -0.03691963 -0.06838935 -0.00739673       0.003
  -0.02464401 -0.06632922 -0.00488486       0.003
  -0.01236839 -0.06426910 -0.00237300       0.003
   0.02448167 -0.04564148  0.00767445       0.003
   0.03675729 -0.04358135  0.01018631       0.003
   0.04903291 -0.04152123  0.01269817       0.003
   0.06130853 -0.03946111  0.01521004       0.003
   0.07358415 -0.03740099  0.01772190       0.003
  -0.06144769 -0.06006232 -0.00990860       0.003
  -0.04917207 -0.05800220 -0.00739673       0.003
  -0.03689644 -0.05594208 -0.00488487       0.003
  -0.02462082 -0.05388196 -0.00237301       0.003
  -0.01234520 -0.05182184  0.00013886       0.003
   0.02450486 -0.03319421  0.01018631       0.003
   0.03678048 -0.03113409  0.01269817       0.003
   0.04905610 -0.02907397  0.01521003       0.003
   0.06133172 -0.02701385  0.01772190       0.003
   0.07360734 -0.02495373  0.02023376       0.003
  -0.06142450 -0.04761505 -0.00739674       0.003
  -0.04914887 -0.04555493 -0.00488487       0.003
  -0.03687325 -0.04349481 -0.00237301       0.003
  -0.02459763 -0.04143469  0.00013885       0.003
  -0.01232201 -0.03937457  0.00265072       0.003
   0.02452805 -0.02074694  0.01269817       0.003
   0.03680367 -0.01868682  0.01521003       0.003
   0.04907929 -0.01662670  0.01772189       0.003
   0.06135491 -0.01456658  0.02023376       0.003
   0.07363053 -0.01250646  0.02274562       0.003
  -0.06140131 -0.03516778 -0.00488488       0.003
  -0.04912568 -0.03310766 -0.00237302       0.003
  -0.03685006 -0.03104754  0.00013885       0.003
  -0.02457444 -0.02898742  0.00265071       0.003
  -0.01229882 -0.02692730  0.00516257       0.003
   0.02464400  0.02906949  0.03544376       0.001
   0.03691962  0.03112961  0.03795562       0.003
   0.04919524  0.03318973  0.04046748       0.003
   0.06147086  0.03524985  0.04297935       0.003
   0.07374648  0.03730997  0.04549121       0.003
  -0.06128536  0.01464864  0.01786071       0.003
  -0.04900973  0.01670876  0.02037258       0.003
  -0.03673411  0.01876888  0.02288444       0.003
  -0.02445849  0.02082900  0.02539630       0.003
   0.03694281  0.04357687  0.04046748       0.003
   0.04921843  0.04563699  0.04297934       0.003
   0.06149405  0.04769711  0.04549120       0.003
   0.07376967  0.04975723  0.04800307       0.003
  -0.06126217  0.02709591  0.02037257       0.003
  -0.04898654  0.02915603  0.02288443       0.003
  -0.03671092  0.03121615  0.02539630       0.003
  -0.02443530  0.03327627  0.02790816       0.003
   0.03696600  0.05602414  0.04297934       0.003
   0.04924162  0.05808426  0.04549120       0.003
   0.06151724  0.06014438  0.04800306       0.003
   0.07379286  0.06220450  0.05051493       0.003
  -0.06123897  0.03954318  0.02288443       0.003
  -0.04896335  0.04160330  0.02539629       0.003
  -0.03668773  0.04366342  0.02790816       0.003
  -0.02441211  0.04572354  0.03042002       0.003
   0.03698919  0.06847141  0.04549119       0.003
   0.04926481  0.07053153  0.04800306       0.003
   0.06154043  0.07259165  0.05051492       0.003
   0.07381606  0.07465177  0.05302679       0.003
  -0.06121578  0.05199044  0.02539629       0.003
  -0.04894016  0.05405057  0.02790815       0.003
  -0.03666454  0.05611069  0.03042001       0.003
  -0.02438892  0.05817081  0.03293188       0.003
   0.03701238  0.08091868  0.04800305       0.003
   0.04928800  0.08297880  0.05051492       0.003
   0.06156362  0.08503892  0.05302678       0.003
   0.07383925  0.08709904  0.05553864       0.003
  -0.06119259  0.06443771  0.02790815       0.003
  -0.04891697  0.06649783  0.03042001       0.003
  -0.03664135  0.06855795  0.03293187       0.003
  -0.02436573  0.07061807  0.03544374       0.003
   0.03675728 -0.05600127  0.02037261       0.003
   0.04903290 -0.05394115  0.02288447       0.003
   0.06130853 -0.05188103  0.02539633       0.003
   0.07358415 -0.04982091  0.02790820       0.003
  -0.06144769 -0.07248223  0.00027770       0.003
  -0.04917207 -0.07042211  0.00278956       0.003
  -0.03689645 -0.06836199  0.00530143       0.003
  -0.02462083 -0.06630187  0.00781329       0.003
   0.03678047 -0.04355400  0.02288447       0.003
   0.04905609 -0.04149388  0.02539633       0.003
   0.06133172 -0.03943376  0.02790819       0.003
   0.07360734 -0.03737364  0.03042006       0.003
  -0.06142450 -0.06003496  0.00278956       0.003
  -0.04914888 -0.05797484  0.00530142       0.003
  -0.03687326 -0.05591472  0.00781329       0.003
  -0.02459764 -0.05385460  0.01032515       0.003
   0.03680366 -0.03110673  0.02539633       0.003
   0.04907928 -0.02904661  0.02790819       0.003
   0.06135491 -0.02698649  0.03042005       0.003
   0.07363053 -0.02492637  0.03293192       0.003
  -0.06140131 -0.04758770  0.00530142       0.003
  -0.04912569 -0.04552758  0.00781328       0.003
  -0.03685007 -0.04346746  0.01032515       0.003
  -0.02457445 -0.04140733  0.01283701       0.003
   0.03696599  0.04360423  0.05316563       0.001
   0.04924162  0.04566435  0.05567750       0.003
   0.06151724  0.04772447  0.05818936       0.003
   0.07379286  0.04978459  0.06070122       0.003
  -0.06123898  0.02712326  0.03307073       0.003
  -0.04896336  0.02918338  0.03558259       0.003
  -0.03668774  0.03124351  0.03809445       0.003
   0.04926481  0.05811162  0.05818936       0.003
   0.06154043  0.06017174  0.06070122       0.003
   0.07381605  0.06223186  0.06321308       0.003
  -0.06121579  0.03957053  0.03558258       0.003
  -0.04894017  0.04163065  0.03809445       0.003
  -0.03666455  0.04369077  0.04060631       0.003
   0.04928800  0.07055888  0.06070121       0.003
   0.06156362  0.07261900  0.06321308       0.003
   0.07383924  0.07467912  0.06572494       0.003
  -0.06119260  0.05201780  0.03809444       0.003
  -0.04891698  0.05407792  0.04060631       0.003
  -0.03664136  0.05613804  0.04311817       0.003
   0.04931119  0.08300615  0.06321307       0.003
   0.06158681  0.08506627  0.06572494       0.003
   0.07386243  0.08712639  0.06823680       0.003
  -0.06116941  0.06446507  0.04060630       0.003
  -0.04889379  0.06652519  0.04311817       0.003
  -0.03661816  0.06858531  0.04563003       0.003
   0.04905609 -0.05391379  0.03558263       0.003
   0.06133171 -0.05185367  0.03809449       0.003
   0.07360733 -0.04979355  0.04060635       0.003
  -0.06142451 -0.07245488  0.01297586       0.003
  -0.04914889 -0.07039476  0.01548772       0.003
  -0.03687326 -0.06833464  0.01799958       0.003
   0.04907928 -0.04146653  0.03809449       0.003
   0.06135490 -0.03940640  0.04060635       0.003
   0.07363052 -0.03734628  0.04311821       0.003
  -0.06140132 -0.06000761  0.01548772       0.003
  -0.04912569 -0.05794749  0.01799958       0.003
  -0.03685007 -0.05588737  0.02051144       0.003
   0.04928799  0.05813897  0.07088751       0.001
   0.06156361  0.06019909  0.07339937       0.003
   0.07383924  0.06225921  0.07591124       0.003
  -0.06119260  0.03959789  0.04828074       0.003
  -0.04891698  0.04165801  0.05079260       0.003
   0.06158680  0.07264636  0.07591123       0.003
   0.07386243  0.07470648  0.07842310       0.003
  -0.06116941  0.05204515  0.05079260       0.003
  -0.04889379  0.05410527  0.05330446       0.003
   0.06161000  0.08509363  0.07842309       0.003
   0.07388562  0.08715375  0.08093496       0.003
  -0.06114622  0.06449242  0.05330446       0.003
  -0.04887060  0.06655254  0.05581632       0.003
   0.06135490 -0.05182632  0.05079265       0.003
   0.07363052 -0.04976620  0.05330451       0.003
  -0.06140132 -0.07242752  0.02567401       0.003
  -0.04912570 -0.07036740  0.02818588       0.003
   0.06160999  0.07267371  0.08860939       0.001
   0.07388561  0.07473383  0.09112125       0.003
  -0.06114623  0.05207251  0.06349076       0.003
   0.07390880  0.08718110  0.09363311       0.003
  -0.06112304  0.06451978  0.06600261       0.003
   0.07393199  0.08720846  0.10633127       0.001
 
 k-points in reciprocal lattice and weights: Auto                                    
   0.00000000  0.00000000  0.00000000       0.001
   0.08333333  0.00000000  0.00000000       0.003
   0.16666667  0.00000000  0.00000000       0.003
   0.25000000  0.00000000  0.00000000       0.003
   0.33333333  0.00000000  0.00000000       0.003
   0.41666667  0.00000000  0.00000000       0.003
   0.50000000  0.00000000  0.00000000       0.002
   0.08333333  0.08333333  0.00000000       0.003
   0.16666667  0.08333333  0.00000000       0.003
   0.25000000  0.08333333  0.00000000       0.003
   0.33333333  0.08333333  0.00000000       0.003
   0.41666667  0.08333333  0.00000000       0.003
   0.50000000  0.08333333  0.00000000       0.003
  -0.41666667  0.08333333  0.00000000       0.003
  -0.33333333  0.08333333  0.00000000       0.003
  -0.25000000  0.08333333  0.00000000       0.003
  -0.16666667  0.08333333  0.00000000       0.003
  -0.08333333  0.08333333  0.00000000       0.003
   0.08333333  0.16666667  0.00000000       0.003
   0.16666667  0.16666667  0.00000000       0.003
   0.25000000  0.16666667  0.00000000       0.003
   0.33333333  0.16666667  0.00000000       0.003
   0.41666667  0.16666667  0.00000000       0.003
   0.50000000  0.16666667  0.00000000       0.003
  -0.41666667  0.16666667  0.00000000       0.003
  -0.33333333  0.16666667  0.00000000       0.003
  -0.25000000  0.16666667  0.00000000       0.003
  -0.16666667  0.16666667  0.00000000       0.003
  -0.08333333  0.16666667  0.00000000       0.003
   0.08333333  0.25000000  0.00000000       0.003
   0.16666667  0.25000000  0.00000000       0.003
   0.25000000  0.25000000  0.00000000       0.003
   0.33333333  0.25000000  0.00000000       0.003
   0.41666667  0.25000000  0.00000000       0.003
   0.50000000  0.25000000  0.00000000       0.003
  -0.41666667  0.25000000  0.00000000       0.003
  -0.33333333  0.25000000  0.00000000       0.003
  -0.25000000  0.25000000  0.00000000       0.003
  -0.16666667  0.25000000  0.00000000       0.003
  -0.08333333  0.25000000  0.00000000       0.003
   0.08333333  0.33333333  0.00000000       0.003
   0.16666667  0.33333333  0.00000000       0.003
   0.25000000  0.33333333  0.00000000       0.003
   0.33333333  0.33333333  0.00000000       0.003
   0.41666667  0.33333333  0.00000000       0.003
   0.50000000  0.33333333  0.00000000       0.003
  -0.41666667  0.33333333  0.00000000       0.003
  -0.33333333  0.33333333  0.00000000       0.003
  -0.25000000  0.33333333  0.00000000       0.003
  -0.16666667  0.33333333  0.00000000       0.003
  -0.08333333  0.33333333  0.00000000       0.003
   0.08333333  0.41666667  0.00000000       0.003
   0.16666667  0.41666667  0.00000000       0.003
   0.25000000  0.41666667  0.00000000       0.003
   0.33333333  0.41666667  0.00000000       0.003
   0.41666667  0.41666667  0.00000000       0.003
   0.50000000  0.41666667  0.00000000       0.003
  -0.41666667  0.41666667  0.00000000       0.003
  -0.33333333  0.41666667  0.00000000       0.003
  -0.25000000  0.41666667  0.00000000       0.003
  -0.16666667  0.41666667  0.00000000       0.003
  -0.08333333  0.41666667  0.00000000       0.003
   0.08333333  0.50000000  0.00000000       0.003
   0.16666667  0.50000000  0.00000000       0.003
   0.25000000  0.50000000  0.00000000       0.003
   0.33333333  0.50000000  0.00000000       0.003
   0.41666667  0.50000000  0.00000000       0.003
   0.50000000  0.50000000  0.00000000       0.002
   0.08333333  0.08333333  0.08333333       0.001
   0.16666667  0.08333333  0.08333333       0.003
   0.25000000  0.08333333  0.08333333       0.003
   0.33333333  0.08333333  0.08333333       0.003
   0.41666667  0.08333333  0.08333333       0.003
   0.50000000  0.08333333  0.08333333       0.003
  -0.41666667  0.08333333  0.08333333       0.003
  -0.33333333  0.08333333  0.08333333       0.003
  -0.25000000  0.08333333  0.08333333       0.003
  -0.16666667  0.08333333  0.08333333       0.003
  -0.08333333  0.08333333  0.08333333       0.003
   0.16666667  0.16666667  0.08333333       0.003
   0.25000000  0.16666667  0.08333333       0.003
   0.33333333  0.16666667  0.08333333       0.003
   0.41666667  0.16666667  0.08333333       0.003
   0.50000000  0.16666667  0.08333333       0.003
  -0.41666667  0.16666667  0.08333333       0.003
  -0.33333333  0.16666667  0.08333333       0.003
  -0.25000000  0.16666667  0.08333333       0.003
  -0.16666667  0.16666667  0.08333333       0.003
  -0.08333333  0.16666667  0.08333333       0.003
   0.16666667  0.25000000  0.08333333       0.003
   0.25000000  0.25000000  0.08333333       0.003
   0.33333333  0.25000000  0.08333333       0.003
   0.41666667  0.25000000  0.08333333       0.003
   0.50000000  0.25000000  0.08333333       0.003
  -0.41666667  0.25000000  0.08333333       0.003
  -0.33333333  0.25000000  0.08333333       0.003
  -0.25000000  0.25000000  0.08333333       0.003
  -0.16666667  0.25000000  0.08333333       0.003
  -0.08333333  0.25000000  0.08333333       0.003
   0.16666667  0.33333333  0.08333333       0.003
   0.25000000  0.33333333  0.08333333       0.003
   0.33333333  0.33333333  0.08333333       0.003
   0.41666667  0.33333333  0.08333333       0.003
   0.50000000  0.33333333  0.08333333       0.003
  -0.41666667  0.33333333  0.08333333       0.003
  -0.33333333  0.33333333  0.08333333       0.003
  -0.25000000  0.33333333  0.08333333       0.003
  -0.16666667  0.33333333  0.08333333       0.003
  -0.08333333  0.33333333  0.08333333       0.003
   0.16666667  0.41666667  0.08333333       0.003
   0.25000000  0.41666667  0.08333333       0.003
   0.33333333  0.41666667  0.08333333       0.003
   0.41666667  0.41666667  0.08333333       0.003
   0.50000000  0.41666667  0.08333333       0.003
  -0.41666667  0.41666667  0.08333333       0.003
  -0.33333333  0.41666667  0.08333333       0.003
  -0.25000000  0.41666667  0.08333333       0.003
  -0.16666667  0.41666667  0.08333333       0.003
  -0.08333333  0.41666667  0.08333333       0.003
   0.16666667  0.50000000  0.08333333       0.003
   0.25000000  0.50000000  0.08333333       0.003
   0.33333333  0.50000000  0.08333333       0.003
   0.41666667  0.50000000  0.08333333       0.003
   0.50000000  0.50000000  0.08333333       0.003
  -0.41666667  0.50000000  0.08333333       0.003
  -0.33333333  0.50000000  0.08333333       0.003
  -0.25000000  0.50000000  0.08333333       0.003
  -0.16666667  0.50000000  0.08333333       0.003
  -0.08333333  0.50000000  0.08333333       0.003
   0.16666667 -0.41666667  0.08333333       0.003
   0.25000000 -0.41666667  0.08333333       0.003
   0.33333333 -0.41666667  0.08333333       0.003
   0.41666667 -0.41666667  0.08333333       0.003
   0.50000000 -0.41666667  0.08333333       0.003
  -0.41666667 -0.41666667  0.08333333       0.003
  -0.33333333 -0.41666667  0.08333333       0.003
  -0.25000000 -0.41666667  0.08333333       0.003
  -0.16666667 -0.41666667  0.08333333       0.003
  -0.08333333 -0.41666667  0.08333333       0.003
   0.16666667 -0.33333333  0.08333333       0.003
   0.25000000 -0.33333333  0.08333333       0.003
   0.33333333 -0.33333333  0.08333333       0.003
   0.41666667 -0.33333333  0.08333333       0.003
   0.50000000 -0.33333333  0.08333333       0.003
  -0.41666667 -0.33333333  0.08333333       0.003
  -0.33333333 -0.33333333  0.08333333       0.003
  -0.25000000 -0.33333333  0.08333333       0.003
  -0.16666667 -0.33333333  0.08333333       0.003
  -0.08333333 -0.33333333  0.08333333       0.003
   0.16666667 -0.25000000  0.08333333       0.003
   0.25000000 -0.25000000  0.08333333       0.003
   0.33333333 -0.25000000  0.08333333       0.003
   0.41666667 -0.25000000  0.08333333       0.003
   0.50000000 -0.25000000  0.08333333       0.003
  -0.41666667 -0.25000000  0.08333333       0.003
  -0.33333333 -0.25000000  0.08333333       0.003
  -0.25000000 -0.25000000  0.08333333       0.003
  -0.16666667 -0.25000000  0.08333333       0.003
  -0.08333333 -0.25000000  0.08333333       0.003
   0.16666667 -0.16666667  0.08333333       0.003
   0.25000000 -0.16666667  0.08333333       0.003
   0.33333333 -0.16666667  0.08333333       0.003
   0.41666667 -0.16666667  0.08333333       0.003
   0.50000000 -0.16666667  0.08333333       0.003
  -0.41666667 -0.16666667  0.08333333       0.003
  -0.33333333 -0.16666667  0.08333333       0.003
  -0.25000000 -0.16666667  0.08333333       0.003
  -0.16666667 -0.16666667  0.08333333       0.003
  -0.08333333 -0.16666667  0.08333333       0.003
   0.16666667  0.16666667  0.16666667       0.001
   0.25000000  0.16666667  0.16666667       0.003
   0.33333333  0.16666667  0.16666667       0.003
   0.41666667  0.16666667  0.16666667       0.003
   0.50000000  0.16666667  0.16666667       0.003
  -0.41666667  0.16666667  0.16666667       0.003
  -0.33333333  0.16666667  0.16666667       0.003
  -0.25000000  0.16666667  0.16666667       0.003
  -0.16666667  0.16666667  0.16666667       0.003
   0.25000000  0.25000000  0.16666667       0.003
   0.33333333  0.25000000  0.16666667       0.003
   0.41666667  0.25000000  0.16666667       0.003
   0.50000000  0.25000000  0.16666667       0.003
  -0.41666667  0.25000000  0.16666667       0.003
  -0.33333333  0.25000000  0.16666667       0.003
  -0.25000000  0.25000000  0.16666667       0.003
  -0.16666667  0.25000000  0.16666667       0.003
   0.25000000  0.33333333  0.16666667       0.003
   0.33333333  0.33333333  0.16666667       0.003
   0.41666667  0.33333333  0.16666667       0.003
   0.50000000  0.33333333  0.16666667       0.003
  -0.41666667  0.33333333  0.16666667       0.003
  -0.33333333  0.33333333  0.16666667       0.003
  -0.25000000  0.33333333  0.16666667       0.003
  -0.16666667  0.33333333  0.16666667       0.003
   0.25000000  0.41666667  0.16666667       0.003
   0.33333333  0.41666667  0.16666667       0.003
   0.41666667  0.41666667  0.16666667       0.003
   0.50000000  0.41666667  0.16666667       0.003
  -0.41666667  0.41666667  0.16666667       0.003
  -0.33333333  0.41666667  0.16666667       0.003
  -0.25000000  0.41666667  0.16666667       0.003
  -0.16666667  0.41666667  0.16666667       0.003
   0.25000000  0.50000000  0.16666667       0.003
   0.33333333  0.50000000  0.16666667       0.003
   0.41666667  0.50000000  0.16666667       0.003
   0.50000000  0.50000000  0.16666667       0.003
  -0.41666667  0.50000000  0.16666667       0.003
  -0.33333333  0.50000000  0.16666667       0.003
  -0.25000000  0.50000000  0.16666667       0.003
  -0.16666667  0.50000000  0.16666667       0.003
   0.25000000 -0.41666667  0.16666667       0.003
   0.33333333 -0.41666667  0.16666667       0.003
   0.41666667 -0.41666667  0.16666667       0.003
   0.50000000 -0.41666667  0.16666667       0.003
  -0.41666667 -0.41666667  0.16666667       0.003
  -0.33333333 -0.41666667  0.16666667       0.003
  -0.25000000 -0.41666667  0.16666667       0.003
  -0.16666667 -0.41666667  0.16666667       0.003
   0.25000000 -0.33333333  0.16666667       0.003
   0.33333333 -0.33333333  0.16666667       0.003
   0.41666667 -0.33333333  0.16666667       0.003
   0.50000000 -0.33333333  0.16666667       0.003
  -0.41666667 -0.33333333  0.16666667       0.003
  -0.33333333 -0.33333333  0.16666667       0.003
  -0.25000000 -0.33333333  0.16666667       0.003
  -0.16666667 -0.33333333  0.16666667       0.003
   0.25000000 -0.25000000  0.16666667       0.003
   0.33333333 -0.25000000  0.16666667       0.003
   0.41666667 -0.25000000  0.16666667       0.003
   0.50000000 -0.25000000  0.16666667       0.003
  -0.41666667 -0.25000000  0.16666667       0.003
  -0.33333333 -0.25000000  0.16666667       0.003
  -0.25000000 -0.25000000  0.16666667       0.003
  -0.16666667 -0.25000000  0.16666667       0.003
   0.25000000  0.25000000  0.25000000       0.001
   0.33333333  0.25000000  0.25000000       0.003
   0.41666667  0.25000000  0.25000000       0.003
   0.50000000  0.25000000  0.25000000       0.003
  -0.41666667  0.25000000  0.25000000       0.003
  -0.33333333  0.25000000  0.25000000       0.003
  -0.25000000  0.25000000  0.25000000       0.003
   0.33333333  0.33333333  0.25000000       0.003
   0.41666667  0.33333333  0.25000000       0.003
   0.50000000  0.33333333  0.25000000       0.003
  -0.41666667  0.33333333  0.25000000       0.003
  -0.33333333  0.33333333  0.25000000       0.003
  -0.25000000  0.33333333  0.25000000       0.003
   0.33333333  0.41666667  0.25000000       0.003
   0.41666667  0.41666667  0.25000000       0.003
   0.50000000  0.41666667  0.25000000       0.003
  -0.41666667  0.41666667  0.25000000       0.003
  -0.33333333  0.41666667  0.25000000       0.003
  -0.25000000  0.41666667  0.25000000       0.003
   0.33333333  0.50000000  0.25000000       0.003
   0.41666667  0.50000000  0.25000000       0.003
   0.50000000  0.50000000  0.25000000       0.003
  -0.41666667  0.50000000  0.25000000       0.003
  -0.33333333  0.50000000  0.25000000       0.003
  -0.25000000  0.50000000  0.25000000       0.003
   0.33333333 -0.41666667  0.25000000       0.003
   0.41666667 -0.41666667  0.25000000       0.003
   0.50000000 -0.41666667  0.25000000       0.003
  -0.41666667 -0.41666667  0.25000000       0.003
  -0.33333333 -0.41666667  0.25000000       0.003
  -0.25000000 -0.41666667  0.25000000       0.003
   0.33333333 -0.33333333  0.25000000       0.003
   0.41666667 -0.33333333  0.25000000       0.003
   0.50000000 -0.33333333  0.25000000       0.003
  -0.41666667 -0.33333333  0.25000000       0.003
  -0.33333333 -0.33333333  0.25000000       0.003
  -0.25000000 -0.33333333  0.25000000       0.003
   0.33333333  0.33333333  0.33333333       0.001
   0.41666667  0.33333333  0.33333333       0.003
   0.50000000  0.33333333  0.33333333       0.003
  -0.41666667  0.33333333  0.33333333       0.003
  -0.33333333  0.33333333  0.33333333       0.003
   0.41666667  0.41666667  0.33333333       0.003
   0.50000000  0.41666667  0.33333333       0.003
  -0.41666667  0.41666667  0.33333333       0.003
  -0.33333333  0.41666667  0.33333333       0.003
   0.41666667  0.50000000  0.33333333       0.003
   0.50000000  0.50000000  0.33333333       0.003
  -0.41666667  0.50000000  0.33333333       0.003
  -0.33333333  0.50000000  0.33333333       0.003
   0.41666667 -0.41666667  0.33333333       0.003
   0.50000000 -0.41666667  0.33333333       0.003
  -0.41666667 -0.41666667  0.33333333       0.003
  -0.33333333 -0.41666667  0.33333333       0.003
   0.41666667  0.41666667  0.41666667       0.001
   0.50000000  0.41666667  0.41666667       0.003
  -0.41666667  0.41666667  0.41666667       0.003
   0.50000000  0.50000000  0.41666667       0.003
  -0.41666667  0.50000000  0.41666667       0.003
   0.50000000  0.50000000  0.50000000       0.001
 
 position of ions in fractional coordinates (direct lattice) 
   0.00000000  0.00000000  0.00000000
   0.13793980  0.60077906  0.30003519
   0.86206017  0.39922094  0.69996478
   0.30003519  0.13793980  0.60077906
   0.69996478  0.86206017  0.39922094
   0.60077906  0.30003519  0.13793980
   0.39922094  0.69996478  0.86206017
   0.43226291  0.58252580  0.17754517
   0.56773706  0.41747420  0.82245481
   0.17754517  0.43226291  0.58252580
   0.82245481  0.56773706  0.41747420
   0.58252580  0.17754517  0.43226291
   0.41747420  0.82245481  0.56773706
   0.92912095  0.32107865  0.07022032
   0.07087905  0.67892132  0.92977970
   0.07022032  0.92912095  0.32107865
   0.92977970  0.07087905  0.67892132
   0.32107865  0.07022032  0.92912095
   0.67892132  0.92977970  0.07087905
 
 position of ions in cartesian coordinates  (Angst):
   0.00000000  0.00000000  0.00000000
  -0.07353339  3.62649956  1.96134283
   4.62271028  1.73960411  4.58142386
   1.20937768  0.12610635  3.94021253
   3.33979921  5.23999707  2.60255436
   3.58963179  1.82145595  0.89477023
   0.95954533  3.54464752  5.64799646
   2.08361782  3.66330579  1.15346782
   2.46555905  1.70279786  5.38929897
   0.06764001  2.12332127  3.81820536
   4.48153698  3.24278216  2.72456153
   3.27288010  0.61156010  2.82948945
   1.27629701  4.75454346  3.71327724
   5.87234057  2.04871045  0.44569465
  -1.32316349  3.31739296  6.09707233
  -0.92547261  5.79906807  2.09631867
   5.47464981 -0.43296440  4.44644802
   1.05995605 -0.76226840  6.09718640
   3.48922079  6.12837213  0.44558049
 


--------------------------------------------------------------------------------------------------------


 k-point  1 :  0.00000.00000.0000  plane waves:    7511
 k-point  2 :  0.08330.00000.0000  plane waves:    7552
 k-point  3 :  0.16670.00000.0000  plane waves:    7587
 k-point  4 :  0.25000.00000.0000  plane waves:    7583
 k-point  5 :  0.33330.00000.0000  plane waves:    7604
 k-point  6 :  0.41670.00000.0000  plane waves:    7595
 k-point  7 :  0.50000.00000.0000  plane waves:    7594
 k-point  8 :  0.08330.08330.0000  plane waves:    7587
 k-point  9 :  0.16670.08330.0000  plane waves:    7603
 k-point 10 :  0.25000.08330.0000  plane waves:    7588
 k-point 11 :  0.33330.08330.0000  plane waves:    7573
 k-point 12 :  0.41670.08330.0000  plane waves:    7578
 k-point 13 :  0.50000.08330.0000  plane waves:    7581
 k-point 14 :  -.41670.08330.0000  plane waves:    7586
 k-point 15 :  -.33330.08330.0000  plane waves:    7584
 k-point 16 :  -.25000.08330.0000  plane waves:    7578
 k-point 17 :  -.16670.08330.0000  plane waves:    7589
 k-point 18 :  -.08330.08330.0000  plane waves:    7569
 k-point 19 :  0.08330.16670.0000  plane waves:    7603
 k-point 20 :  0.16670.16670.0000  plane waves:    7594
 k-point 21 :  0.25000.16670.0000  plane waves:    7592
 k-point 22 :  0.33330.16670.0000  plane waves:    7583
 k-point 23 :  0.41670.16670.0000  plane waves:    7588
 k-point 24 :  0.50000.16670.0000  plane waves:    7579
 k-point 25 :  -.41670.16670.0000  plane waves:    7593
 k-point 26 :  -.33330.16670.0000  plane waves:    7589
 k-point 27 :  -.25000.16670.0000  plane waves:    7581
 k-point 28 :  -.16670.16670.0000  plane waves:    7579
 k-point 29 :  -.08330.16670.0000  plane waves:    7589
 k-point 30 :  0.08330.25000.0000  plane waves:    7588
 k-point 31 :  0.16670.25000.0000  plane waves:    7592
 k-point 32 :  0.25000.25000.0000  plane waves:    7568
 k-point 33 :  0.33330.25000.0000  plane waves:    7582
 k-point 34 :  0.41670.25000.0000  plane waves:    7593
 k-point 35 :  0.50000.25000.0000  plane waves:    7593
 k-point 36 :  -.41670.25000.0000  plane waves:    7596
 k-point 37 :  -.33330.25000.0000  plane waves:    7598
 k-point 38 :  -.25000.25000.0000  plane waves:    7589
[...]
  0.000   0.000   0.000   0.000   0.000   0.000   0.000   0.000   0.000   0.000   0.000   0.000   0.000   0.000   0.000   0.000
  0.000   0.000   0.000   0.000   0.000   0.000   0.000   0.000   0.000   0.000   0.000   0.000   0.000   0.000   0.000   0.000
  0.000   0.000   0.000   0.000   0.000   0.000   0.000   0.000   0.000   0.000   0.000   0.000   0.000   0.000   0.000   0.000
  0.000   0.000   0.000   0.000   0.000   0.000   0.000   0.000   0.000   0.000   0.000   0.000   0.000   0.000   0.000   0.000
  0.000   0.000   0.000   0.000   0.000   0.000   0.000   0.000   0.000   0.000   0.000   0.000   0.000   0.000   0.000   0.000
  0.000   0.000   0.000   0.000   0.000   0.000   0.000   0.000   0.000   0.000   0.000   0.000   0.000   0.000   0.000   0.000
  0.000   0.000   0.000   0.000   0.000   0.000   0.000   0.000   0.000   0.000   0.000   0.000   0.000   0.000   0.000   0.000
  0.000   0.000   0.000   0.000   0.000   0.000   0.000   0.000   0.000   0.000   0.000   0.000   0.000   0.000   0.000   0.000
  0.000   0.000   0.000   0.000   0.000   0.000   0.000   0.000   0.000   0.000   0.000   0.000   0.000   0.000   0.000   0.000
  0.000   0.000   0.000   0.000   0.000   0.000   0.000   0.000   0.000   0.000   0.000   0.000   0.000   0.000   0.000   0.000
  0.000   0.000   0.000   0.000   0.000   0.000   0.000   0.000   0.000   0.000   0.000   0.000   0.000   0.000   0.000   0.000
  0.000   0.000   0.000   0.000   0.000   0.000   0.000   0.000   0.000   0.000   0.000   0.000   0.000   0.000   0.000   0.000
  0.000   0.000   0.000   0.000   0.000   0.000   0.000   0.000   0.000   0.000   0.000   0.000   0.000   0.000   0.000   0.000
  0.000   0.000   0.000   0.000   0.000   0.000   0.000   0.000   0.000   0.000   0.000   0.000   0.000   0.000   0.000   0.000
  0.000   0.000   0.000   0.000   0.000   0.000   0.000   0.000   0.000   0.000   0.000   0.000   0.000   0.000   0.000   0.000
  0.000   0.000   0.000   0.000   0.000   0.000   0.000   0.000   0.000   0.000   0.000   0.000   0.000   0.000   0.000   0.000
  0.000   0.000   0.000   0.000   0.000   0.000   0.000   0.000   0.000   0.000   0.000   0.000   0.000   0.000   0.000   0.000
 total augmentation occupancy for first ion, spin component:           2
  0.195  -0.074   0.000   0.000   0.000   0.000   0.000   0.000   0.000   0.000   0.000   0.000   0.000   0.000   0.000   0.000
 -0.074   0.195   0.000   0.000   0.000   0.000   0.000   0.000   0.000   0.000   0.000   0.000   0.000   0.000   0.000   0.000
  0.000   0.000   0.167   0.000   0.000   0.000   0.000   0.000   0.000   0.000   0.000   0.000   0.000   0.000   0.000   0.000
  0.000   0.000   0.000   0.167   0.000   0.000   0.000   0.000   0.000   0.000   0.000   0.000   0.000   0.000   0.000   0.000
  0.000   0.000   0.000   0.000   0.167   0.000   0.000   0.000   0.000   0.000   0.000   0.000   0.000   0.000   0.000   0.000
  0.000   0.000   0.000   0.000   0.000   0.000   0.000   0.000   0.000   0.000   0.000   0.000   0.000   0.000   0.000   0.000
  0.000   0.000   0.000   0.000   0.000   0.000   0.000   0.000   0.000   0.000   0.000   0.000   0.000   0.000   0.000   0.000
  0.000   0.000   0.000   0.000   0.000   0.000   0.000   0.000   0.000   0.000   0.000   0.000   0.000   0.000   0.000   0.000
  0.000   0.000   0.000   0.000   0.000   0.000   0.000   0.000   0.017   0.000   0.000   0.000   0.000   0.000   0.000   0.000
  0.000   0.000   0.000   0.000   0.000   0.000   0.000   0.000   0.000   0.017   0.000   0.000   0.000   0.000   0.000   0.000
  0.000   0.000   0.000   0.000   0.000   0.000   0.000   0.000   0.000   0.000   0.017   0.000   0.000   0.000   0.000   0.000
  0.000   0.000   0.000   0.000   0.000   0.000   0.000   0.000   0.000   0.000   0.000   0.017   0.000   0.000   0.000   0.000
  0.000   0.000   0.000   0.000   0.000   0.000   0.000   0.000   0.000   0.000   0.000   0.000   0.017   0.000   0.000   0.000
  0.000   0.000   0.000   0.000   0.000   0.000   0.000   0.000   0.000   0.000   0.000   0.000   0.000   0.000   0.000   0.000
  0.000   0.000   0.000   0.000   0.000   0.000   0.000   0.000   0.000   0.000   0.000   0.000   0.000   0.000   0.000   0.000
  0.000   0.000   0.000   0.000   0.000   0.000   0.000   0.000   0.000   0.000   0.000   0.000   0.000   0.000   0.000   0.000
  0.000   0.000   0.000   0.000   0.000   0.000   0.000   0.000   0.000   0.000   0.000   0.000   0.000   0.000   0.000   0.000
  0.000   0.000   0.000   0.000   0.000   0.000   0.000   0.000   0.000   0.000   0.000   0.000   0.000   0.000   0.000   0.000
  0.000   0.000   0.000   0.000   0.000   0.000   0.000   0.000   0.000   0.000   0.000   0.000   0.000   0.000   0.000   0.000
  0.000   0.000   0.000   0.000   0.000   0.000   0.000   0.000   0.000   0.000   0.000   0.000   0.000   0.000   0.000   0.000
  0.000   0.000   0.000   0.000   0.000   0.000   0.000   0.000   0.000   0.000   0.000   0.000   0.000   0.000   0.000   0.000
  0.000   0.000   0.000   0.000   0.000   0.000   0.000   0.000   0.000   0.000   0.000   0.000   0.000   0.000   0.000   0.000
  0.000   0.000   0.000   0.000   0.000   0.000   0.000   0.000   0.000   0.000   0.000   0.000   0.000   0.000   0.000   0.000
  0.000   0.000   0.000   0.000   0.000   0.000   0.000   0.000   0.000   0.000   0.000   0.000   0.000   0.000   0.000   0.000
  0.000   0.000   0.000   0.000   0.000   0.000   0.000   0.000   0.000   0.000   0.000   0.000   0.000   0.000   0.000   0.000
  0.000   0.000   0.000   0.000   0.000   0.000   0.000   0.000   0.000   0.000   0.000   0.000   0.000   0.000   0.000   0.000
  0.000   0.000   0.000   0.000   0.000   0.000   0.000   0.000   0.000   0.000   0.000   0.000   0.000   0.000   0.000   0.000
  0.000   0.000   0.000   0.000   0.000   0.000   0.000   0.000   0.000   0.000   0.000   0.000   0.000   0.000   0.000   0.000
  0.000   0.000   0.000   0.000   0.000   0.000   0.000   0.000   0.000   0.000   0.000   0.000   0.000   0.000   0.000   0.000
  0.000   0.000   0.000   0.000   0.000   0.000   0.000   0.000   0.000   0.000   0.000   0.000   0.000   0.000   0.000   0.000
  0.000   0.000   0.000   0.000   0.000   0.000   0.000   0.000   0.000   0.000   0.000   0.000   0.000   0.000   0.000   0.000
  0.000   0.000   0.000   0.000   0.000   0.000   0.000   0.000   0.000   0.000   0.000   0.000   0.000   0.000   0.000   0.000


------------------------ aborting loop because EDIFF is reached ----------------------------------------


 


 total charge     
 
# of ion     s       p       d       f       tot
------------------------------------------------
  1        1.990   5.650   0.683   0.943   9.265
  2        1.984   5.644   0.630   1.010   9.268
  3        1.984   5.644   0.630   1.010   9.268
  4        1.984   5.644   0.627   1.003   9.258
  5        1.984   5.644   0.627   1.003   9.258
  6        1.983   5.644   0.628   1.033   9.288
  7        1.983   5.644   0.628   1.033   9.288
  8        1.573   3.443   0.000   0.000   5.015
  9        1.573   3.443   0.000   0.000   5.015
 10        1.573   3.437   0.000   0.000   5.010
 11        1.573   3.437   0.000   0.000   5.010
 12        1.572   3.439   0.000   0.000   5.011
 13        1.572   3.439   0.000   0.000   5.011
 14        1.574   3.442   0.000   0.000   5.016
 15        1.574   3.442   0.000   0.000   5.016
 16        1.573   3.436   0.000   0.000   5.009
 17        1.573   3.436   0.000   0.000   5.009
 18        1.574   3.445   0.000   0.000   5.019
 19        1.574   3.445   0.000   0.000   5.019
------------------------------------------------
tot       32.768  80.801   4.454   7.033 125.055

 


 magnetization (x)
 
# of ion     s       p       d       f       tot
------------------------------------------------
  1       -0.002  -0.004   0.012   0.374   0.380
  2       -0.003  -0.004   0.011   0.581   0.584
  3       -0.003  -0.004   0.011   0.581   0.584
  4       -0.003  -0.004   0.010   0.568   0.571
  5       -0.003  -0.004   0.010   0.568   0.571
  6       -0.003  -0.004   0.011   0.600   0.604
  7       -0.003  -0.004   0.011   0.600   0.604
  8       -0.001  -0.021   0.000   0.000  -0.022
  9       -0.001  -0.021   0.000   0.000  -0.022
 10       -0.001  -0.021   0.000   0.000  -0.022
 11       -0.001  -0.021   0.000   0.000  -0.022
 12       -0.001  -0.021   0.000   0.000  -0.022
 13       -0.001  -0.021   0.000   0.000  -0.022
 14       -0.001  -0.020   0.000   0.000  -0.020
 15       -0.001  -0.020   0.000   0.000  -0.020
 16       -0.001  -0.020   0.000   0.000  -0.021
 17       -0.001  -0.020   0.000   0.000  -0.021
 18       -0.001  -0.020   0.000   0.000  -0.020
 19       -0.001  -0.020   0.000   0.000  -0.020
------------------------------------------------
tot       -0.031  -0.274   0.077   3.872   3.644

 
    CHARGE:  cpu time    9.85: real time    9.91
    FORLOC:  cpu time    0.01: real time    0.01
    FORNL :  cpu time  128.25: real time  128.39
    STRESS:  cpu time  102.08: real time  102.31
    FORCOR:  cpu time    0.15: real time    0.16
    FORHAR:  cpu time    0.03: real time    0.03

  FORCE on cell =-STRESS in cart. coord.  units (eV):
  Direction    XX          YY          ZZ          XY          YZ          ZX
  --------------------------------------------------------------------------------------
  Alpha Z   791.17524   791.17524   791.17524
  Ewald   -3574.29019 -3574.74933 -3575.54361    -1.38371    -1.99009    -1.68712
  Hartree   838.91933   841.34910   845.55250     7.32267    10.53169     8.92836
  E(xc)    -745.45264  -745.46753  -745.49328    -0.04487    -0.06454    -0.05471
  Local    -463.06517  -464.86867  -467.98863    -5.43524    -7.81713    -6.62706
  n-local   181.98814   181.94859   181.73217     0.75019     0.68131     1.15627
  augment   -25.57393   -25.65488   -25.79488    -0.23711    -0.34608    -0.29183
  Kinetic  2991.84619  2993.03257  2994.20633    -1.33509    -0.91124    -1.84482
  Fock        0.00000     0.00000     0.00000     0.00000     0.00000     0.00000
  -------------------------------------------------------------------------------------
  Total      -3.26028    -3.27670    -3.30512    -0.04950    -0.07120    -0.06035
  in kB     -17.49472   -17.58287   -17.73536    -0.26560    -0.38204    -0.32387
  external pressure =      -17.60 kB  Pullay stress =        0.00 kB


 VOLUME and BASIS-vectors are now :
 -----------------------------------------------------------------------------
  energy-cutoff  :      500.00
  volume of cell :      298.58
      direct lattice vectors                 reciprocal lattice vectors
     6.792760413 -0.010157336 -0.012380845     0.147307461  0.024721445  0.030142360
    -1.121789857  6.699498835 -0.012383871     0.000278290  0.149367212  0.030142304
    -1.121793496 -1.323237871  6.567531604     0.000278223  0.000328254  0.152377868

  length of vectors
     6.792779290  6.792779290  6.792779290     0.152378476  0.152378476  0.152378476


 FORCES acting on ions
    electron-ion (+dipol)            ewald-force                    non-local-force                 convergence-correction
 -----------------------------------------------------------------------------------------------
   0.349E-05 0.412E-05 0.503E-05   -.292E-04 -.345E-04 -.420E-04   0.232E-22 -.199E-22 -.106E-21   0.224E-04 0.264E-04 0.322E-04
   -.413E+02 0.543E+02 0.544E+01   0.416E+02 -.548E+02 -.495E+01   -.600E-01 0.321E+00 0.146E-01   -.184E+00 0.131E+00 -.491E+00
   0.413E+02 -.543E+02 -.544E+01   -.416E+02 0.548E+02 0.495E+01   0.600E-01 -.321E+00 -.146E-01   0.184E+00 -.131E+00 0.491E+00
   0.153E+01 -.416E+02 0.543E+02   -.102E+01 0.420E+02 -.547E+02   -.381E-01 -.671E-01 0.318E+00   -.470E+00 -.265E+00 0.319E-01
   -.153E+01 0.416E+02 -.543E+02   0.102E+01 -.420E+02 0.547E+02   0.381E-01 0.671E-01 -.318E+00   0.470E+00 0.265E+00 -.319E-01
   0.604E+02 0.116E+02 -.302E+02   -.608E+02 -.111E+02 0.305E+02   0.327E+00 0.156E-01 -.364E-02   0.159E+00 -.450E+00 -.253E+00
   -.604E+02 -.116E+02 0.302E+02   0.608E+02 0.111E+02 -.305E+02   -.327E+00 -.156E-01 0.364E-02   -.159E+00 0.450E+00 0.253E+00
   0.103E+02 0.487E+02 -.192E+02   -.974E+01 -.498E+02 0.196E+02   -.487E+00 0.117E+01 -.327E+00   -.772E-01 0.116E-01 -.501E-01
   -.103E+02 -.487E+02 0.192E+02   0.974E+01 0.498E+02 -.196E+02   0.487E+00 -.117E+01 0.327E+00   0.771E-01 -.116E-01 0.500E-01
   -.297E+02 0.552E+01 0.439E+02   0.302E+02 -.487E+01 -.450E+02   -.463E+00 -.571E+00 0.108E+01   -.380E-01 -.846E-01 0.161E-02
   0.297E+02 -.552E+01 -.439E+02   -.302E+02 0.487E+01 0.450E+02   0.463E+00 0.571E+00 -.108E+01   0.380E-01 0.845E-01 -.159E-02
   0.463E+02 -.224E+02 0.140E+02   -.476E+02 0.227E+02 -.136E+02   0.123E+01 -.264E+00 -.348E+00   0.241E-01 -.345E-01 -.827E-01
   -.463E+02 0.224E+02 -.140E+02   0.476E+02 -.227E+02 0.136E+02   -.123E+01 0.264E+00 0.348E+00   -.241E-01 0.345E-01 0.825E-01
   -.424E+02 -.165E+01 -.761E+01   0.434E+02 0.381E+01 0.671E+01   -.139E+01 -.125E+01 0.117E+01   0.456E+00 -.914E+00 -.283E+00
   0.424E+02 0.165E+01 0.761E+01   -.434E+02 -.381E+01 -.671E+01   0.139E+01 0.125E+01 -.117E+01   -.456E+00 0.914E+00 0.283E+00
   -.928E-01 -.430E+02 -.310E+01   -.134E+01 0.437E+02 0.505E+01   0.161E+01 -.114E+01 -.995E+00   -.172E+00 0.434E+00 -.952E+00
   0.926E-01 0.430E+02 0.310E+01   0.134E+01 -.437E+02 -.505E+01   -.161E+01 0.114E+01 0.995E+00   0.172E+00 -.434E+00 0.952E+00
   0.532E+01 0.789E+00 -.428E+02   -.334E+01 -.191E+01 0.439E+02   -.100E+01 0.146E+01 -.132E+01   -.976E+00 -.337E+00 0.239E+00
   -.532E+01 -.789E+00 0.428E+02   0.334E+01 0.191E+01 -.439E+02   0.100E+01 -.146E+01 0.132E+01   0.976E+00 0.337E+00 -.239E+00
 -----------------------------------------------------------------------------------------------
   0.608E-03 0.717E-03 0.874E-03   0.123E-12 0.533E-13 -.284E-13   0.000E+00 -.222E-15 0.444E-15   -.230E-03 -.271E-03 -.331E-03
 
 
 POSITION                                       TOTAL-FORCE (eV/Angst)
 -----------------------------------------------------------------------------------
      0.00000      0.00000      0.00000         0.000000      0.000000      0.000000
     -0.07353      3.62650      1.96134         0.010858      0.016104      0.011827
      4.62271      1.73960      4.58142        -0.010858     -0.016104     -0.011827
      1.20938      0.12611      3.94021         0.006556      0.012094      0.018107
      3.33980      5.24000      2.60255        -0.006556     -0.012094     -0.018107
      3.58963      1.82146      0.89477         0.014109      0.008986      0.015403
      0.95955      3.54465      5.64800        -0.014109     -0.008986     -0.015403
      2.08362      3.66331      1.15347        -0.007921     -0.002934      0.008158
      2.46556      1.70280      5.38930         0.007921      0.002934     -0.008158
      0.06764      2.12332      3.81821         0.009755     -0.006411     -0.001281
      4.48154      3.24278      2.72456        -0.009755      0.006411      0.001281
      3.27288      0.61156      2.82949        -0.001598      0.009623     -0.006538
      1.27630      4.75454      3.71328         0.001598     -0.009623      0.006538
      5.87234      2.04871      0.44569        -0.025595     -0.000201      0.000808
     -1.32316      3.31739      6.09707         0.025595      0.000201     -0.000808
     -0.92547      5.79907      2.09632         0.005009     -0.025114     -0.000039
      5.47465     -0.43296      4.44645        -0.005009      0.025114      0.000039
      1.05996     -0.76227      6.09719         0.003991      0.005740     -0.024636
      3.48922      6.12837      0.44558        -0.003991     -0.005740      0.024636
 -----------------------------------------------------------------------------------
    total drift:                                0.000378      0.000446      0.000544


--------------------------------------------------------------------------------------------------------



  FREE ENERGIE OF THE ION-ELECTRON SYSTEM (eV)
  ---------------------------------------------------
  free  energy   TOTEN  =      -166.936200 eV

  energy  without entropy=     -166.936200  energy(sigma->0) =     -166.936200
 


--------------------------------------------------------------------------------------------------------


    POTLOK:  cpu time    2.25: real time    2.28


--------------------------------------------------------------------------------------------------------


     LOOP+:  cpu time 3697.47: real time 3698.80
    4ORBIT:  cpu time    0.00: real time    0.00
 


 total charge     
 
# of ion     s       p       d       f       tot
------------------------------------------------
  1        1.990   5.650   0.683   0.943   9.265
  2        1.984   5.644   0.630   1.010   9.268
  3        1.984   5.644   0.630   1.010   9.268
  4        1.984   5.644   0.627   1.003   9.258
  5        1.984   5.644   0.627   1.003   9.258
  6        1.983   5.644   0.628   1.033   9.288
  7        1.983   5.644   0.628   1.033   9.288
  8        1.573   3.443   0.000   0.000   5.015
  9        1.573   3.443   0.000   0.000   5.015
 10        1.573   3.437   0.000   0.000   5.010
 11        1.573   3.437   0.000   0.000   5.010
 12        1.572   3.439   0.000   0.000   5.011
 13        1.572   3.439   0.000   0.000   5.011
 14        1.574   3.442   0.000   0.000   5.016
 15        1.574   3.442   0.000   0.000   5.016
 16        1.573   3.436   0.000   0.000   5.009
 17        1.573   3.436   0.000   0.000   5.009
 18        1.574   3.445   0.000   0.000   5.019
 19        1.574   3.445   0.000   0.000   5.019
------------------------------------------------
tot       32.768  80.801   4.454   7.033 125.055

 


 magnetization (x)
 
# of ion     s       p       d       f       tot
------------------------------------------------
  1       -0.002  -0.004   0.012   0.374   0.380
  2       -0.003  -0.004   0.011   0.581   0.584
  3       -0.003  -0.004   0.011   0.581   0.584
  4       -0.003  -0.004   0.010   0.568   0.571
  5       -0.003  -0.004   0.010   0.568   0.571
  6       -0.003  -0.004   0.011   0.600   0.604
  7       -0.003  -0.004   0.011   0.600   0.604
  8       -0.001  -0.021   0.000   0.000  -0.022
  9       -0.001  -0.021   0.000   0.000  -0.022
 10       -0.001  -0.021   0.000   0.000  -0.022
 11       -0.001  -0.021   0.000   0.000  -0.022
 12       -0.001  -0.021   0.000   0.000  -0.022
 13       -0.001  -0.021   0.000   0.000  -0.022
 14       -0.001  -0.020   0.000   0.000  -0.020
 15       -0.001  -0.020   0.000   0.000  -0.020
 16       -0.001  -0.020   0.000   0.000  -0.021
 17       -0.001  -0.020   0.000   0.000  -0.021
 18       -0.001  -0.020   0.000   0.000  -0.020
 19       -0.001  -0.020   0.000   0.000  -0.020
------------------------------------------------
tot       -0.031  -0.274   0.077   3.872   3.644

 
 BZINTS: Fermi energy:  7.055754;156.000000 electrons
         Band energy:-854.950682;  BLOECHL correction: -0.000055

 total amount of memory used by VASP on root node   580330. kBytes
========================================================================

   base      :      30000. kBytes
   nonl-proj :     197288. kBytes
   fftplans  :       7256. kBytes
   grid      :       5878. kBytes
   one-center:        393. kBytes
   wavefun   :     339515. kBytes
 
  
  
 General timing and accounting informations for this job:
 ========================================================
  
                  Total CPU time used (sec):     3788.758
                            User time (sec):     3167.504
                          System time (sec):      621.254
                         Elapsed time (sec):     3791.728
  
                   Maximum memory used (kb):     1184112.
                   Average memory used (kb):           0.
  
                          Minor page faults:       331818
                          Major page faults:            0
                 Voluntary context switches:         9763
